
                                 *****************
                                 * O   R   C   A *
                                 *****************

                                            #,                                       
                                            ###                                      
                                            ####                                     
                                            #####                                    
                                            ######                                   
                                           ########,                                 
                                     ,,################,,,,,                         
                               ,,#################################,,                 
                          ,,##########################################,,             
                       ,#########################################, ''#####,          
                    ,#############################################,,   '####,        
                  ,##################################################,,,,####,       
                ,###########''''           ''''###############################       
              ,#####''   ,,,,##########,,,,          '''####'''          '####       
            ,##' ,,,,###########################,,,                        '##       
           ' ,,###''''                  '''############,,,                           
         ,,##''                                '''############,,,,        ,,,,,,###''
      ,#''                                            '''#######################'''  
     '                                                          ''''####''''         
             ,#######,   #######,   ,#######,      ##                                
            ,#'     '#,  ##    ##  ,#'     '#,    #''#        ,####,    ,#,          
            ##       ##  ##   ,#'  ##            #'  '#       #'       ,# #          
            ##       ##  #######   ##           ,######,      #####,      #          
            '#,     ,#'  ##    ##  '#,     ,#' ,#      #,     #,   #      #          
             '#######'   ##     ##  '#######'  #'      '#     '####' #    #          



                #########################################################
                #                        -***-                          #
                #          Department of theory and spectroscopy        #
                #                                                       #
                #                      Frank Neese                      #
                #                                                       #
                #     Directorship, Architecture, Infrastructure        #
                #                    SHARK, DRIVERS                     #
                #        Core code/Algorithms in most modules           #
                #                                                       #
                #        Max Planck Institute fuer Kohlenforschung      #
                #                Kaiser Wilhelm Platz 1                 #
                #                 D-45470 Muelheim/Ruhr                 #
                #                      Germany                          #
                #                                                       #
                #                  All rights reserved                  #
                #                        -***-                          #
                #########################################################


                         Program Version 6.1.0-f.0  -   RELEASE   -


 With contributions from (in alphabetic order):
[Max-Planck-Institut fuer Kohlenforschung]                               
  Daniel Aravena         : Magnetic Suceptibility                        
  Michael Atanasov       : Ab Initio Ligand Field Theory (pilot matlab implementation)
  Alexander A. Auer      : GIAO ZORA, VPT2 properties, NMR spectrum      
  Ute Becker             : All parallelization in ORCA, NUMFREQ, NUMCALC 
  Giovanni Bistoni       : ED, misc. LED, open-shell LED, HFLD           
  Dmytro Bykov           : pre 5.0 version of the SCF Hessian            
  Marcos Casanova-Páez   : Triplet and SCS-CIS(D). UHF-(DLPNO)-IP/EA/STEOM-CCSD. UHF-CVS-IP/STEOM-CCSD   
  Vijay G. Chilkuri      : MRCI spin determinant printing, contributions to CSF-ICE 
  Pauline Colinet        : FMM embedding                                 
  Dipayan Datta          : RHF DLPNO-CCSD density                        
  Achintya Kumar Dutta   : EOM-CC, STEOM-CC                              
  Nicolas Foglia         : Exact transition moments, OPA infrastructure, MCD improvements    
  Dmitry Ganyushin       : Spin-Orbit,Spin-Spin,Magnetic field MRCI      
  Miquel Garcia-Rates    : C-PCM and meta-GGA Hessian, CCSD/C-PCM, Gaussian charge scheme 
  Tiago L. C. Gouveia    : GS-ROHF, GS-ROCIS                             
  Yang Guo               : DLPNO-NEVPT2, F12-NEVPT2, CIM, IAO-localization        
  Andreas Hansen         : Spin unrestricted coupled pair/coupled cluster methods 
  Ingolf Harden          : AUTO-CI MPn and infrastructure                
  Benjamin Helmich-Paris : MC-RPA, TRAH-(SCF,CASSCF), AVAS, COSX integrals, SCF dyn. polar., MC-PDFT, srDFT 
  Lee Huntington         : MR-EOM, pCC                                   
  Robert Izsak           : Overlap fitted RIJCOSX, COSX-SCS-MP3, EOM     
  Riya Kayal             : Wick's Theorem for AUTO-CI, AUTO-CI UHF-CCSDT 
  Emily Kempfer          : AUTO-CI RHF CISDT and CCSDT, approximate NEVPT4
  Christian Kollmar      : KDIIS, OOCD, Brueckner-CCSD(T), CCSD density, CASPT2, CASPT2-K, improved NEVPT2 
  Axel Koslowski         : Symmetry handling                             
  Simone Kossmann        : meta-GGA functionals, TD-DFT gradient, OOMP2, (MP2 Hessian; deprecated post 5.0) 
  Lucas Lang             : DCDCAS, Hyperfine gauge corrections, ICE-SOC+SSC
  Marvin Lechner         : AUTO-CI (C++ implementation), FIC-MRCC        
  Spencer Leger          : CASSCF response                               
  Dagmar Lenk            : GEPOL surface, SMD, ORCA-2-JSON               
  Dimitrios Liakos       : Extrapolation schemes; Compound Job, Property file
  Dimitrios Manganas     : Further ROCIS development; embedding schemes. LFT, Crystal Embedding 
  Dimitrios Pantazis     : SARC Basis sets                               
  Anastasios Papadopoulos: AUTO-CI, single reference methods and gradients 
  Taras Petrenko         : pre 6.0 DFT Hessian and TD-DFT gradient,  ECA, NRVS 
  Petra Pikulova         : Analytic Raman intensities                    
  Peter Pinski           : DLPNO-MP2, DLPNO-MP2 Gradient                 
  Shashank Vittal Rao    : ES-AILFT, MagRelax                            
  Christoph Reimann      : Effective Core Potentials                     
  Marius Retegan         : Local ZFS, SOC                                
  Christoph Riplinger    : Optimizer, TS searches, QM/MM, DLPNO-CCSD(T), (RO)-DLPNO pert. Triples 
  Michael Roemelt        : Original ROCIS implementation, recursive CI coupling coefficients
  Masaaki Saitow         : Open-shell DLPNO-CCSD energy and density      
  Barbara Sandhoefer     : DKH picture change effects                    
  Yorick L. A. Schmerwitz: GMF and freeze-and-release deltaSCF, NEB S-IDPP initial path                    
  Kantharuban Sivalingam : CASSCF convergence/infrastructure, NEVPT2, NEVPT3, NEVPT4(SD), FIC-MRCI and CEPA variants
  Bernardo de Souza      : ESD, SOC TD-DFT                               
  Georgi L. Stoychev     : AutoAux, RI-MP2 NMR, DLPNO-MP2 response, X2C  
  Van Anh Tran           : RI-MP2 g-tensors                              
  Willem Van den Heuvel  : Paramagnetic NMR                              
  Zikuan Wang            : NOTCH, Electric field optimization            
  Frank Wennmohs         : Technical directorship and infrastructure     
  Hang Xu                : AUTO-CI-Response properties                   
                                                                         
[FACCTs GmbH]                                                            
  Markus Bursch, Nicolas Foglia, Miquel Garcia-Rates, Ingolf Harden, Hagen Neugebauer, Anastasios Papadopoulos, 
  Christoph Riplinger, Bernardo de Souza, Georgi L. Stoychev                                                    
                                                                 
  APM, various basis sets, CI-OPT, improved COSX, DLPNO-Multilevel,           
  DOCKER, DRACO, updates on ESD, Fragmentator, GOAT, IRC, LR-CPCM, L-BFGS, MBIS, meta-GGA TD-DFT gradient, ML-optimized integration grids, 
  MM, NACMEs, nearIR, NEB, NEB-TS, NL-DFT gradient (VV10), 2- and 3-layer-ONIOM, interface openCOSMO-RS, QMMM,   
  Crystal-QMMM, RESP, rigid body optimization, SF, symmetry and pop. for TD-DFT, various functionals, SOLVATOR                                   
                                                                         
[Other institutions]                                                     
  V. Asgeirsson          : NEB                                           
  Christoph Bannwarth    : sTDA-DFT, sTD-DFT, PBEh-3c, B97-3c, D3        
  Giovanni Bistoni       : ETS/NOCV, ADLD/ADEX, COVALED                  
  Martin Brehm           : Molecular dynamics                            
  Ronald Cardenas        : ETS/NOCV                                      
  Martina Colucci        : COVALED                                       
  Sebastian Ehlert       : rSCAN, r2SCAN, r2SCAN-3c, D4, dhf basis sets  
  Marvin Friede          : D4 for Fr, Ra, Ac-Lr                          
  Lars Goerigk           : TD-DFT with DH, B97 family of functionals     
  Stefan Grimme          : VdW corrections, initial TS optimization, DFT functionals, gCP, sTDA/sTD-DF 
  Waldemar Hujo          : DFT-NL                                        
  H. Jonsson             : NEB                                           
  Holger Kruse           : gCP                                           
  Marcel Mueller         : wB97X-3c, vDZP basis set                      
  Hagen Neugebauer       : wr2SCAN, Native XTB                           
  Gianluca Regni         : ADLD/ADEX                                     
  Tobias Risthaus        : pre 6.0 range-separated hybrid DFT and stability analysis
  Lukas Wittmann         : regularized MP2, r2SCAN double-hybrids, wr2SCAN        
                                                                         
We gratefully acknowledge several colleagues who have allowed us to      
interface, adapt or use parts of their codes:                            
  Ed Valeev, F. Pavosevic, A. Kumar             : LibInt (2-el integral package), F12 methods 
  Garnet Chan, S. Sharma, J. Yang, R. Olivares  : DMRG                   
  Ulf Ekstrom                                   : XCFun DFT Library      
  Mihaly Kallay                                 : mrcc  (arbitrary order and MRCC methods)
  Frank Weinhold                                : gennbo (NPA and NBO analysis)           
  Simon Mueller                                 : openCOSMO-RS                            
  Christopher J. Cramer and Donald G. Truhlar   : smd solvation model                     
  S Lehtola, MJT Oliveira, MAL Marques          : LibXC Library                           
  Liviu Ungur et al                             : ANISO software                          


 Your calculation uses the libint2 library for the computation of 2-el integrals
 For citations please refer to: http://libint.valeyev.net

 Your ORCA version has been built with support for libXC version: 7.0.0
 For citations please refer to: https://libxc.gitlab.io

 This ORCA versions uses:
   CBLAS   interface :  Fast vector & matrix operations
   LAPACKE interface :  Fast linear algebra routines
   SCALAPACK package :  Parallel linear algebra routines
   Shared memory     :  Shared parallel matrices
   BLAS/LAPACK       :  OpenBLAS 0.3.29  USE64BITINT DYNAMIC_ARCH NO_AFFINITY Cooperlake SINGLE_THREADED
        Core in use  :  Cooperlake
   Copyright (c) 2011-2014, The OpenBLAS Project


  ***********************************
  * Starting time: Wed Mar  4 13:44:39 2026
  * Host name:     c01b01n04
  * Process ID:    2223674
  * Working dir.:  /lustre1/jiangy/jiangy_liuxy/NMR/B9D7C2-SRSR-NMR/opt_conf
  ***********************************

NOTE: MaxCore=5000 MB was set to SCF,MP2,MDCI,CIPSI,MRCI,RASCI and CIS
      => If you want to overwrite this, your respective input block should be placed after the MaxCore statement


***************************************
The coordinates will be read from file: opt-conf-5.xyz
***************************************



Warning: The global flag for NMR shieldings has been found
         but shieldings for certain elements have also been explicitly requested in the EPRNMR block
         ==>> only the requested shieldings will be calculated

================================================================================

----- Orbital basis set information -----
Your calculation utilizes the basis: pcSseg-2
   F. Jensen, J. Chem. Theory Comput. 11, 132 (2015).

----- AuxJ basis set information -----
Your calculation utilizes the AutoAux generation procedure.
  G. L. Stoychev, A. A. Auer, F. Neese, J. Chem. Theory Comput. 13, 554 (2017)

----- AuxC basis set information -----
Your calculation utilizes the AutoAux generation procedure.
  G. L. Stoychev, A. A. Auer, F. Neese, J. Chem. Theory Comput. 13, 554 (2017)

----- AuxJK basis set information -----
Your calculation utilizes the AutoAux generation procedure.
  G. L. Stoychev, A. A. Auer, F. Neese, J. Chem. Theory Comput. 13, 554 (2017)

----- AuxX basis set information -----
Your calculation utilizes the AutoAux generation procedure.
  G. L. Stoychev, A. A. Auer, F. Neese, J. Chem. Theory Comput. 13, 554 (2017)

================================================================================
                                        WARNINGS
                       Please study these warnings very carefully!
================================================================================


================================================================================
                                       INPUT FILE
================================================================================
NAME = nmr-conf-5.inp
|  1> !TPSS PCSSEG-2 AUTOAUX NMR CPCM(Methanol)
|  2> 
|  3> %pal nprocs 60 end
|  4> %maxcore 5000
|  5> 
|  6> *XYZFILE 0 1 opt-conf-5.xyz
|  7> 
|  8> %EPRNMR
|  9>    NUCLEI = ALL C {SHIFT}
| 10>    NUCLEI = ALL H {SHIFT}
| 11>    TAU DOBSON
| 12> END
| 13> 
| 14> 
| 15>                          ****END OF INPUT****
================================================================================

                       ****************************
                       * Single Point Calculation *
                       ****************************

---------------------------------
CARTESIAN COORDINATES (ANGSTROEM)
---------------------------------
  C     20.939926  -29.981367    2.014398
  C     21.510550  -29.636216    0.786151
  C     20.795244  -29.877564   -0.391719
  C     19.543571  -30.485476   -0.338094
  C     18.975473  -30.821006    0.888597
  C     19.671679  -30.558092    2.063667
  C     17.625563  -31.490947    0.919632
  C     17.691033  -33.000372    0.603045
  C     16.355234  -33.574834    0.085023
  C     16.132983  -33.240702   -1.403498
  C     17.217153  -33.731329   -2.331155
  C     17.596037  -35.079682   -2.328191
  C     18.577408  -35.540250   -3.191278
  C     19.190896  -34.658582   -4.095705
  C     18.829985  -33.325242   -4.096557
  C     17.852341  -32.866249   -3.213502
  C     18.253429  -33.775130    1.796913
  C     15.111819  -33.142179    0.862483
  O     21.403429  -29.490835   -1.545284
  O     21.705576  -29.733567    3.110939
  O     22.720969  -28.986062    0.787176
  O     20.143612  -35.114517   -4.961457
  O     19.036805  -36.825026   -3.259048
  C     23.871860  -29.584476    0.164400
  C     24.247476  -30.908483    0.857344
  C     23.316289  -32.051052    0.552047
  C     24.960342  -28.520188    0.303718
  O     26.071085  -28.757459   -0.551709
  C     23.062253  -32.407088   -0.777755
  C     22.210200  -33.458161   -1.069699
  C     21.596066  -34.165456   -0.025417
  C     21.864013  -33.833762    1.288977
  C     22.725207  -32.778193    1.575371
  C     21.201488  -30.127313    4.384186
  C     20.714981  -29.712366   -2.773821
  C     18.499728  -37.783845   -2.348819
  O     25.613641  -31.258057    0.518461
  O     18.481582  -35.157705    1.511887
  O     15.121264  -33.498151    2.248181
  O     21.879864  -33.890089   -2.315883
  O     20.732144  -35.187460   -0.311971
  C     22.536571  -33.294384   -3.435320
  H     18.998261  -30.693366   -1.246892
  H     19.227852  -30.821606    3.012019
  H     16.979471  -31.003624    0.186449
  H     17.161693  -31.340627    1.897643
  H     18.415047  -33.124261   -0.208241
  H     16.421896  -34.663782    0.171005
  H     16.028505  -32.159515   -1.527440
  H     15.175218  -33.675871   -1.708725
  H     17.121493  -35.765616   -1.641198
  H     19.320261  -32.648168   -4.784726
  H     17.584840  -31.816673   -3.218754
  H     17.553798  -33.745946    2.631087
  H     19.185191  -33.303052    2.121409
  H     14.999272  -32.056972    0.840911
  H     14.228118  -33.570236    0.374784
  H     20.277458  -36.060348   -4.798560
  H     23.679399  -29.750328   -0.896588
  H     24.251022  -30.723179    1.932807
  H     25.275688  -28.451570    1.352422
  H     24.533461  -27.559206    0.015422
  H     26.375295  -29.654145   -0.338808
  H     23.515556  -31.850204   -1.585227
  H     21.392176  -34.398518    2.082302
  H     22.917042  -32.509562    2.606001
  H     21.975785  -29.868514    5.102533
  H     20.281593  -29.590762    4.629808
  H     21.014463  -31.203393    4.418138
  H     21.380821  -29.356036   -3.555952
  H     20.506520  -30.773254   -2.924546
  H     19.777329  -29.151937   -2.805031
  H     17.426923  -37.913793   -2.508746
  H     19.017698  -38.716581   -2.556599
  H     18.681797  -37.481983   -1.314928
  H     25.597111  -31.903063   -0.200814
  H     19.172960  -35.216272    0.832610
  H     15.182965  -34.459445    2.312312
  H     20.636759  -35.254590   -1.275280
  H     22.311217  -32.228569   -3.497261
  H     23.617469  -33.436355   -3.364400
  H     22.146682  -33.804675   -4.310201

----------------------------
CARTESIAN COORDINATES (A.U.)
----------------------------
  NO LB      ZA    FRAG     MASS         X           Y           Z
   0 C     6.0000    0    12.011   39.570725  -56.656573    3.806661
   1 C     6.0000    0    12.011   40.649048  -56.004332    1.485611
   2 C     6.0000    0    12.011   39.297315  -56.460413   -0.740241
   3 C     6.0000    0    12.011   36.931996  -57.609201   -0.638906
   4 C     6.0000    0    12.011   35.858447  -58.243260    1.679205
   5 C     6.0000    0    12.011   37.174085  -57.746425    3.899765
   6 C     6.0000    0    12.011   33.307486  -59.509265    1.737853
   7 C     6.0000    0    12.011   33.431207  -62.361665    1.139590
   8 C     6.0000    0    12.011   30.906912  -63.447241    0.160670
   9 C     6.0000    0    12.011   30.486919  -62.815823   -2.652228
  10 C     6.0000    0    12.011   32.535704  -63.742974   -4.405245
  11 C     6.0000    0    12.011   33.251691  -66.290992   -4.399644
  12 C     6.0000    0    12.011   35.106214  -67.161339   -6.030641
  13 C     6.0000    0    12.011   36.265538  -65.495228   -7.739760
  14 C     6.0000    0    12.011   35.583516  -62.975580   -7.741372
  15 C     6.0000    0    12.011   33.736036  -62.108209   -6.072639
  16 C     6.0000    0    12.011   34.493982  -63.825746    3.395674
  17 C     6.0000    0    12.011   28.557200  -62.629642    1.629857
  18 O     8.0000    0    15.999   40.446618  -55.729602   -2.920163
  19 O     8.0000    0    15.999   41.017594  -56.188299    5.878823
  20 O     8.0000    0    15.999   42.936408  -54.775719    1.487546
  21 O     8.0000    0    15.999   38.065909  -66.356821   -9.375796
  22 O     8.0000    0    15.999   35.974349  -69.589215   -6.158707
  23 C     6.0000    0    12.011   45.111278  -55.906558    0.310672
  24 C     6.0000    0    12.011   45.821090  -58.408567    1.620146
  25 C     6.0000    0    12.011   44.061400  -60.567711    1.043218
  26 C     6.0000    0    12.011   47.168210  -53.895345    0.573943
  27 O     8.0000    0    15.999   49.267210  -54.343721   -1.042578
  28 C     6.0000    0    12.011   43.581343  -61.240521   -1.469744
  29 C     6.0000    0    12.011   41.971195  -63.226761   -2.021438
  30 C     6.0000    0    12.011   40.810651  -64.563355   -0.048031
  31 C     6.0000    0    12.011   41.316996  -63.936544    2.435813
  32 C     6.0000    0    12.011   42.944418  -61.941808    2.977021
  33 C     6.0000    0    12.011   40.065006  -56.932371    8.284911
  34 C     6.0000    0    12.011   39.145641  -56.148235   -5.241762
  35 C     6.0000    0    12.011   34.959420  -71.401119   -4.438625
  36 O     8.0000    0    15.999   48.402767  -59.069168    0.979748
  37 O     8.0000    0    15.999   34.925128  -66.438433    2.857052
  38 O     8.0000    0    15.999   28.575047  -63.302332    4.248446
  39 O     8.0000    0    15.999   41.346951  -64.042986   -4.376384
  40 O     8.0000    0    15.999   39.178075  -66.494663   -0.589541
  41 C     6.0000    0    12.011   42.587947  -62.917267   -6.491815
  42 H     1.0000    0     1.008   35.901510  -58.002056   -2.356285
  43 H     1.0000    0     1.008   36.335375  -58.244395    5.691891
  44 H     1.0000    0     1.008   32.086550  -58.588358    0.352337
  45 H     1.0000    0     1.008   32.430899  -59.225203    3.586026
  46 H     1.0000    0     1.008   34.799395  -62.595781   -0.393519
  47 H     1.0000    0     1.008   31.032886  -65.505054    0.323153
  48 H     1.0000    0     1.008   30.289484  -60.772675   -2.886444
  49 H     1.0000    0     1.008   28.677006  -63.638174   -3.229022
  50 H     1.0000    0     1.008   32.354932  -67.587219   -3.101414
  51 H     1.0000    0     1.008   36.510001  -61.696097   -9.041822
  52 H     1.0000    0     1.008   33.230532  -60.124799   -6.082564
  53 H     1.0000    0     1.008   33.171871  -63.770597    4.972033
  54 H     1.0000    0     1.008   36.254757  -62.933647    4.008882
  55 H     1.0000    0     1.008   28.344516  -60.578898    1.589091
  56 H     1.0000    0     1.008   26.887247  -63.438552    0.708239
  57 H     1.0000    0     1.008   38.318842  -68.144182   -9.067963
  58 H     1.0000    0     1.008   44.747578  -56.219973   -1.694305
  59 H     1.0000    0     1.008   45.827790  -58.058394    3.652476
  60 H     1.0000    0     1.008   47.764128  -53.765676    2.555707
  61 H     1.0000    0     1.008   46.361522  -52.079352    0.029144
  62 H     1.0000    0     1.008   49.842084  -56.038213   -0.640254
  63 H     1.0000    0     1.008   44.437960  -60.188162   -2.995645
  64 H     1.0000    0     1.008   40.425354  -65.003778    3.934980
  65 H     1.0000    0     1.008   43.306932  -61.434170    4.924628
  66 H     1.0000    0     1.008   41.528215  -56.443311    9.642390
  67 H     1.0000    0     1.008   38.326656  -55.918436    8.749070
  68 H     1.0000    0     1.008   39.711580  -58.965867    8.349070
  69 H     1.0000    0     1.008   40.403896  -55.474868   -6.719775
  70 H     1.0000    0     1.008   38.751707  -58.153022   -5.526592
  71 H     1.0000    0     1.008   37.373735  -55.089176   -5.300740
  72 H     1.0000    0     1.008   32.932112  -71.646686   -4.740842
  73 H     1.0000    0     1.008   35.938240  -73.163734   -4.831272
  74 H     1.0000    0     1.008   35.303479  -70.830683   -2.484853
  75 H     1.0000    0     1.008   48.371529  -60.288052   -0.379483
  76 H     1.0000    0     1.008   36.231643  -66.549109    1.573405
  77 H     1.0000    0     1.008   28.691647  -65.118914    4.369637
  78 H     1.0000    0     1.008   38.997823  -66.621521   -2.409929
  79 H     1.0000    0     1.008   42.162089  -60.903169   -6.608866
  80 H     1.0000    0     1.008   44.630548  -63.185553   -6.357794
  81 H     1.0000    0     1.008   41.851164  -63.881578   -8.145100

--------------------------------
INTERNAL COORDINATES (ANGSTROEM)
--------------------------------
 C      0   0   0     0.000000000000     0.00000000     0.00000000
 C      1   0   0     1.397616345807     0.00000000     0.00000000
 C      2   1   0     1.399031693390   119.24454955     0.00000000
 C      3   2   1     1.392522104267   120.16292077   358.41174031
 C      4   3   2     1.392870344502   120.37675601     1.96600195
 C      5   4   3     1.390904201297   119.62660966   359.34034842
 C      5   4   3     1.507329672358   119.37108326   180.61378208
 C      7   5   4     1.543656976967   113.10353111    78.86316083
 C      8   7   5     1.543603691358   113.33004933   202.88742453
 C      9   8   7     1.541666322264   111.59973152    78.80141099
 C     10   9   8     1.508869536615   114.80613815    57.86666704
 C     11  10   9     1.400577445809   120.40529221    53.83124746
 C     12  11  10     1.385688072819   120.68052735   179.05875952
 C     13  12  11     1.404169901754   120.12654033   359.05912704
 C     14  13  12     1.381322998602   119.49354565     1.45839313
 C     11  10   9     1.389375715376   121.09623079   233.20823723
 C      8   7   5     1.530314302578   110.52611514    74.81509514
 C      9   8   7     1.528958269521   115.32837488   314.80713454
 O      3   2   1     1.360205807889   115.87169446   178.73155600
 O      1   2   3     1.360156731454   115.70068925   179.06106532
 O      2   1   3     1.373977798880   118.41692385   175.62137895
 O     14  13  12     1.365676497383   120.23088566   181.01408907
 O     13  12  11     1.366121946756   125.56603222   178.96426988
 C     21   2   1     1.438922974155   120.49777914   118.59407682
 C     24  21   2     1.540860721667   110.95801435   297.61980267
 C     25  24  21     1.505251541775   114.21835347    73.76762535
 C     24  21   2     1.528695912385   103.91750538   176.40902086
 O     27  24  21     1.421900429325   112.65707631   195.79294831
 C     26  25  24     1.399881591288   119.86659810    54.68493279
 C     29  26  25     1.384189488965   120.34367633   179.84299305
 C     30  29  26     1.402837062403   119.69129654     0.21470628
 C     31  30  29     1.381827463528   120.14337051   358.54619892
 C     26  25  24     1.387553380134   120.77883272   233.30576898
 C     20   1   2     1.424885233514   118.09295123   183.08852544
 C     19   3   2     1.425601826677   118.08248315   180.11326477
 C     23  13  12     1.426990085993   118.27471986   358.22695591
 O     25  24  21     1.450328164353   109.36920506   198.35729739
 O     17   8   7     1.429967045948   113.11819102   186.71828810
 O     18   9   8     1.430721287156   114.62734725   300.45164906
 O     30  29  26     1.359653276732   125.73871682   179.52457123
 O     31  30  29     1.368563581672   119.80179845   178.67494846
 C     40  30  29     1.428029415319   118.30965840     5.34722735
 H      4   3   2     1.080043772712   120.36147353   181.37229381
 H      6   5   4     1.079718918016   119.35059564   180.10644262
 H      7   5   4     1.092005738831   108.52372706   317.92157707
 H      7   5   4     1.092830060456   109.72025545   201.61669273
 H      8   7   5     1.094408747431   106.90480493   319.73323419
 H      9   8   7     1.094369333509   106.93175311   196.06901684
 H     10   9   8     1.093271835679   109.72920957   295.12222541
 H     10   9   8     1.095375883986   107.99850569   179.86040125
 H     12  11  10     1.080582157562   119.58125529   358.69441609
 H     15  14  13     1.082762299036   119.05729372   178.91238383
 H     16  11  10     1.083140031088   119.57199729     1.64537059
 H     17   8   7     1.089119618814   110.35780359    67.74669778
 H     17   8   7     1.093771431753   109.02671422   309.32488098
 H     18   9   8     1.091240731573   110.80767995    59.70807375
 H     18   9   8     1.096362517076   108.59169832   177.24434450
 H     22  14  13     0.969043802438   108.39981173   358.97979690
 H     24  21   2     1.090983030966   110.06160981    60.20605837
 H     25  24  21     1.091315562582   107.34170377   312.40709043
 H     27  24  21     1.097238399373   109.58959173    71.48150840
 H     27  24  21     1.090334024769   108.10409354   313.92244137
 H     28  27  24     0.970524102337   105.48920595   304.43935565
 H     29  26  25     1.080562145267   120.17612033   358.64849216
 H     32  31  30     1.082101411833   119.17819127   180.83471907
 H     33  26  25     1.082201482858   119.78610337     1.33887017
 H     34  20   1     1.087444276241   105.82013913   178.19218337
 H     34  20   1     1.092897330881   111.28051059   297.06957599
 H     34  20   1     1.092738813339   111.12693588    59.27462346
 H     35  19   3     1.087218112764   105.85857817   181.28524237
 H     35  19   3     1.091630283078   111.23689196   300.31688259
 H     35  19   3     1.092815889923   111.05536519    62.29967679
 H     36  23  13     1.092416728518   110.86457377    62.51326982
 H     36  23  13     1.086949945108   105.97986093   181.54645309
 H     36  23  13     1.092337691763   110.81323763   300.60472532
 H     37  25  24     0.966261211235   108.58517550   261.70878646
 H     38  17   8     0.971005150343   108.14119214    64.53327281
 H     39  18   9     0.965404393826   108.21041889   299.88043398
 H     41  31  30     0.970344100105   108.75859132   357.57575837
 H     42  40  30     1.091138467690   110.91564782   297.31625149
 H     42  40  30     1.092486405638   110.48076508    59.02015205
 H     42  40  30     1.085277262563   105.69889754   178.32004265

---------------------------
INTERNAL COORDINATES (A.U.)
---------------------------
 C      0   0   0     0.000000000000     0.00000000     0.00000000
 C      1   0   0     2.641112133867     0.00000000     0.00000000
 C      2   1   0     2.643786753183   119.24454955     0.00000000
 C      3   2   1     2.631485412496   120.16292077   358.41174031
 C      4   3   2     2.632143491170   120.37675601     1.96600195
 C      5   4   3     2.628428018972   119.62660966   359.34034842
 C      5   4   3     2.848440274289   119.37108326   180.61378208
 C      7   5   4     2.917088931184   113.10353111    78.86316083
 C      8   7   5     2.916988235977   113.33004933   202.88742453
 C      9   8   7     2.913327138968   111.59973152    78.80141099
 C     10   9   8     2.851350196019   114.80613815    57.86666704
 C     11  10   9     2.646707801926   120.40529221    53.83124746
 C     12  11  10     2.618570964670   120.68052735   179.05875952
 C     13  12  11     2.653496559809   120.12654033   359.05912704
 C     14  13  12     2.610322169845   119.49354565     1.45839313
 C     11  10   9     2.625539599182   121.09623079   233.20823723
 C      8   7   5     2.891874930694   110.52611514    74.81509514
 C      9   8   7     2.889312399589   115.32837488   314.80713454
 O      3   2   1     2.570416462679   115.87169446   178.73155600
 O      1   2   3     2.570323721657   115.70068925   179.06106532
 O      2   1   3     2.596441753971   118.41692385   175.62137895
 O     14  13  12     2.580754567586   120.23088566   181.01408907
 O     13  12  11     2.581596344909   125.56603222   178.96426988
 C     21   2   1     2.719170348960   120.49777914   118.59407682
 C     24  21   2     2.911804774467   110.95801435   297.61980267
 C     25  24  21     2.844513176617   114.21835347    73.76762535
 C     24  21   2     2.888816616453   103.91750538   176.40902086
 O     27  24  21     2.687002401129   112.65707631   195.79294831
 C     26  25  24     2.645392827452   119.86659810    54.68493279
 C     29  26  25     2.615739051596   120.34367633   179.84299305
 C     30  29  26     2.650977858457   119.69129654     0.21470628
 C     31  30  29     2.611275470399   120.14337051   358.54619892
 C     26  25  24     2.622095884650   120.77883272   233.30576898
 C     20   1   2     2.692642863610   118.09295123   183.08852544
 C     19   3   2     2.693997028437   118.08248315   180.11326477
 C     23  13  12     2.696620458348   118.27471986   358.22695591
 O     25  24  21     2.740723034941   109.36920506   198.35729739
 O     17   8   7     2.702246097374   113.11819102   186.71828810
 O     18   9   8     2.703671406696   114.62734725   300.45164906
 O     30  29  26     2.569372330112   125.73871682   179.52457123
 O     31  30  29     2.586210366219   119.80179845   178.67494846
 C     40  30  29     2.698584506137   118.30965840     5.34722735
 H      4   3   2     2.040986943072   120.36147353   181.37229381
 H      6   5   4     2.040373056664   119.35059564   180.10644262
 H      7   5   4     2.063591783061   108.52372706   317.92157707
 H      7   5   4     2.065149525179   109.72025545   201.61669273
 H      8   7   5     2.068132811212   106.90480493   319.73323419
 H      9   8   7     2.068058329693   106.93175311   196.06901684
 H     10   9   8     2.065984359362   109.72920957   295.12222541
 H     10   9   8     2.069960434435   107.99850569   179.86040125
 H     12  11  10     2.042004342994   119.58125529   358.69441609
 H     15  14  13     2.046124213312   119.05729372   178.91238383
 H     16  11  10     2.046838023443   119.57199729     1.64537059
 H     17   8   7     2.058137806639   110.35780359    67.74669778
 H     17   8   7     2.066928459120   109.02671422   309.32488098
 H     18   9   8     2.062146128853   110.80767995    59.70807375
 H     18   9   8     2.071824900770   108.59169832   177.24434450
 H     22  14  13     1.831227398382   108.39981173   358.97979690
 H     24  21   2     2.061659145281   110.06160981    60.20605837
 H     25  24  21     2.062287538966   107.34170377   312.40709043
 H     27  24  21     2.073480078437   109.58959173    71.48150840
 H     27  24  21     2.060432701310   108.10409354   313.92244137
 H     28  27  24     1.834024759786   105.48920595   304.43935565
 H     29  26  25     2.041966525236   120.17612033   358.64849216
 H     32  31  30     2.044875317494   119.17819127   180.83471907
 H     33  26  25     2.045064424324   119.78610337     1.33887017
 H     34  20   1     2.054971867996   105.82013913   178.19218337
 H     34  20   1     2.065276647858   111.28051059   297.06957599
 H     34  20   1     2.064977093117   111.12693588    59.27462346
 H     35  19   3     2.054544480963   105.85857817   181.28524237
 H     35  19   3     2.062882274513   111.23689196   300.31688259
 H     35  19   3     2.065122746753   111.05536519    62.29967679
 H     36  23  13     2.064368441012   110.86457377    62.51326982
 H     36  23  13     2.054037717535   105.97986093   181.54645309
 H     36  23  13     2.064219083192   110.81323763   300.60472532
 H     37  25  24     1.825969063065   108.58517550   261.70878646
 H     38  17   8     1.834933808775   108.14119214    64.53327281
 H     39  18   9     1.824349912815   108.21041889   299.88043398
 H     41  31  30     1.833684604864   108.75859132   357.57575837
 H     42  40  30     2.061952878121   110.91564782   297.31625149
 H     42  40  30     2.064500111689   110.48076508    59.02015205
 H     42  40  30     2.050876805615   105.69889754   178.32004265

---------------------
BASIS SET INFORMATION
---------------------
There are 3 groups of distinct atoms

 Group   1 Type C   : 11s7p2d1f contracted to 4s5p2d1f pattern {7211/31111/11/1}
 Group   2 Type O   : 11s7p2d1f contracted to 4s5p2d1f pattern {7211/31111/11/1}
 Group   3 Type H   : 6s3p1d contracted to 3s2p1d pattern {411/21/1}

Atom   0C    basis set group =>   1
Atom   1C    basis set group =>   1
Atom   2C    basis set group =>   1
Atom   3C    basis set group =>   1
Atom   4C    basis set group =>   1
Atom   5C    basis set group =>   1
Atom   6C    basis set group =>   1
Atom   7C    basis set group =>   1
Atom   8C    basis set group =>   1
Atom   9C    basis set group =>   1
Atom  10C    basis set group =>   1
Atom  11C    basis set group =>   1
Atom  12C    basis set group =>   1
Atom  13C    basis set group =>   1
Atom  14C    basis set group =>   1
Atom  15C    basis set group =>   1
Atom  16C    basis set group =>   1
Atom  17C    basis set group =>   1
Atom  18O    basis set group =>   2
Atom  19O    basis set group =>   2
Atom  20O    basis set group =>   2
Atom  21O    basis set group =>   2
Atom  22O    basis set group =>   2
Atom  23C    basis set group =>   1
Atom  24C    basis set group =>   1
Atom  25C    basis set group =>   1
Atom  26C    basis set group =>   1
Atom  27O    basis set group =>   2
Atom  28C    basis set group =>   1
Atom  29C    basis set group =>   1
Atom  30C    basis set group =>   1
Atom  31C    basis set group =>   1
Atom  32C    basis set group =>   1
Atom  33C    basis set group =>   1
Atom  34C    basis set group =>   1
Atom  35C    basis set group =>   1
Atom  36O    basis set group =>   2
Atom  37O    basis set group =>   2
Atom  38O    basis set group =>   2
Atom  39O    basis set group =>   2
Atom  40O    basis set group =>   2
Atom  41C    basis set group =>   1
Atom  42H    basis set group =>   3
Atom  43H    basis set group =>   3
Atom  44H    basis set group =>   3
Atom  45H    basis set group =>   3
Atom  46H    basis set group =>   3
Atom  47H    basis set group =>   3
Atom  48H    basis set group =>   3
Atom  49H    basis set group =>   3
Atom  50H    basis set group =>   3
Atom  51H    basis set group =>   3
Atom  52H    basis set group =>   3
Atom  53H    basis set group =>   3
Atom  54H    basis set group =>   3
Atom  55H    basis set group =>   3
Atom  56H    basis set group =>   3
Atom  57H    basis set group =>   3
Atom  58H    basis set group =>   3
Atom  59H    basis set group =>   3
Atom  60H    basis set group =>   3
Atom  61H    basis set group =>   3
Atom  62H    basis set group =>   3
Atom  63H    basis set group =>   3
Atom  64H    basis set group =>   3
Atom  65H    basis set group =>   3
Atom  66H    basis set group =>   3
Atom  67H    basis set group =>   3
Atom  68H    basis set group =>   3
Atom  69H    basis set group =>   3
Atom  70H    basis set group =>   3
Atom  71H    basis set group =>   3
Atom  72H    basis set group =>   3
Atom  73H    basis set group =>   3
Atom  74H    basis set group =>   3
Atom  75H    basis set group =>   3
Atom  76H    basis set group =>   3
Atom  77H    basis set group =>   3
Atom  78H    basis set group =>   3
Atom  79H    basis set group =>   3
Atom  80H    basis set group =>   3
Atom  81H    basis set group =>   3
---------------------------------
AUXILIARY/J BASIS SET INFORMATION
---------------------------------
There are 3 groups of distinct atoms

 Group   1 Type C   : 15s13p12d5f5g contracted to 15s13p12d5f5g pattern {111111111111111/1111111111111/111111111111/11111/11111}
 Group   2 Type O   : 15s13p12d5f5g contracted to 15s13p12d5f5g pattern {111111111111111/1111111111111/111111111111/11111/11111}
 Group   3 Type H   : 12s4p3d2f contracted to 12s4p3d2f pattern {111111111111/1111/111/11}

Atom   0C    basis set group =>   1
Atom   1C    basis set group =>   1
Atom   2C    basis set group =>   1
Atom   3C    basis set group =>   1
Atom   4C    basis set group =>   1
Atom   5C    basis set group =>   1
Atom   6C    basis set group =>   1
Atom   7C    basis set group =>   1
Atom   8C    basis set group =>   1
Atom   9C    basis set group =>   1
Atom  10C    basis set group =>   1
Atom  11C    basis set group =>   1
Atom  12C    basis set group =>   1
Atom  13C    basis set group =>   1
Atom  14C    basis set group =>   1
Atom  15C    basis set group =>   1
Atom  16C    basis set group =>   1
Atom  17C    basis set group =>   1
Atom  18O    basis set group =>   2
Atom  19O    basis set group =>   2
Atom  20O    basis set group =>   2
Atom  21O    basis set group =>   2
Atom  22O    basis set group =>   2
Atom  23C    basis set group =>   1
Atom  24C    basis set group =>   1
Atom  25C    basis set group =>   1
Atom  26C    basis set group =>   1
Atom  27O    basis set group =>   2
Atom  28C    basis set group =>   1
Atom  29C    basis set group =>   1
Atom  30C    basis set group =>   1
Atom  31C    basis set group =>   1
Atom  32C    basis set group =>   1
Atom  33C    basis set group =>   1
Atom  34C    basis set group =>   1
Atom  35C    basis set group =>   1
Atom  36O    basis set group =>   2
Atom  37O    basis set group =>   2
Atom  38O    basis set group =>   2
Atom  39O    basis set group =>   2
Atom  40O    basis set group =>   2
Atom  41C    basis set group =>   1
Atom  42H    basis set group =>   3
Atom  43H    basis set group =>   3
Atom  44H    basis set group =>   3
Atom  45H    basis set group =>   3
Atom  46H    basis set group =>   3
Atom  47H    basis set group =>   3
Atom  48H    basis set group =>   3
Atom  49H    basis set group =>   3
Atom  50H    basis set group =>   3
Atom  51H    basis set group =>   3
Atom  52H    basis set group =>   3
Atom  53H    basis set group =>   3
Atom  54H    basis set group =>   3
Atom  55H    basis set group =>   3
Atom  56H    basis set group =>   3
Atom  57H    basis set group =>   3
Atom  58H    basis set group =>   3
Atom  59H    basis set group =>   3
Atom  60H    basis set group =>   3
Atom  61H    basis set group =>   3
Atom  62H    basis set group =>   3
Atom  63H    basis set group =>   3
Atom  64H    basis set group =>   3
Atom  65H    basis set group =>   3
Atom  66H    basis set group =>   3
Atom  67H    basis set group =>   3
Atom  68H    basis set group =>   3
Atom  69H    basis set group =>   3
Atom  70H    basis set group =>   3
Atom  71H    basis set group =>   3
Atom  72H    basis set group =>   3
Atom  73H    basis set group =>   3
Atom  74H    basis set group =>   3
Atom  75H    basis set group =>   3
Atom  76H    basis set group =>   3
Atom  77H    basis set group =>   3
Atom  78H    basis set group =>   3
Atom  79H    basis set group =>   3
Atom  80H    basis set group =>   3
Atom  81H    basis set group =>   3
---------------------------------
AUXILIARY/C BASIS SET INFORMATION
---------------------------------
There are 3 groups of distinct atoms

 Group   1 Type C   : 15s13p12d5f5g contracted to 15s13p12d5f5g pattern {111111111111111/1111111111111/111111111111/11111/11111}
 Group   2 Type O   : 15s13p12d5f5g contracted to 15s13p12d5f5g pattern {111111111111111/1111111111111/111111111111/11111/11111}
 Group   3 Type H   : 12s4p3d2f contracted to 12s4p3d2f pattern {111111111111/1111/111/11}

Atom   0C    basis set group =>   1
Atom   1C    basis set group =>   1
Atom   2C    basis set group =>   1
Atom   3C    basis set group =>   1
Atom   4C    basis set group =>   1
Atom   5C    basis set group =>   1
Atom   6C    basis set group =>   1
Atom   7C    basis set group =>   1
Atom   8C    basis set group =>   1
Atom   9C    basis set group =>   1
Atom  10C    basis set group =>   1
Atom  11C    basis set group =>   1
Atom  12C    basis set group =>   1
Atom  13C    basis set group =>   1
Atom  14C    basis set group =>   1
Atom  15C    basis set group =>   1
Atom  16C    basis set group =>   1
Atom  17C    basis set group =>   1
Atom  18O    basis set group =>   2
Atom  19O    basis set group =>   2
Atom  20O    basis set group =>   2
Atom  21O    basis set group =>   2
Atom  22O    basis set group =>   2
Atom  23C    basis set group =>   1
Atom  24C    basis set group =>   1
Atom  25C    basis set group =>   1
Atom  26C    basis set group =>   1
Atom  27O    basis set group =>   2
Atom  28C    basis set group =>   1
Atom  29C    basis set group =>   1
Atom  30C    basis set group =>   1
Atom  31C    basis set group =>   1
Atom  32C    basis set group =>   1
Atom  33C    basis set group =>   1
Atom  34C    basis set group =>   1
Atom  35C    basis set group =>   1
Atom  36O    basis set group =>   2
Atom  37O    basis set group =>   2
Atom  38O    basis set group =>   2
Atom  39O    basis set group =>   2
Atom  40O    basis set group =>   2
Atom  41C    basis set group =>   1
Atom  42H    basis set group =>   3
Atom  43H    basis set group =>   3
Atom  44H    basis set group =>   3
Atom  45H    basis set group =>   3
Atom  46H    basis set group =>   3
Atom  47H    basis set group =>   3
Atom  48H    basis set group =>   3
Atom  49H    basis set group =>   3
Atom  50H    basis set group =>   3
Atom  51H    basis set group =>   3
Atom  52H    basis set group =>   3
Atom  53H    basis set group =>   3
Atom  54H    basis set group =>   3
Atom  55H    basis set group =>   3
Atom  56H    basis set group =>   3
Atom  57H    basis set group =>   3
Atom  58H    basis set group =>   3
Atom  59H    basis set group =>   3
Atom  60H    basis set group =>   3
Atom  61H    basis set group =>   3
Atom  62H    basis set group =>   3
Atom  63H    basis set group =>   3
Atom  64H    basis set group =>   3
Atom  65H    basis set group =>   3
Atom  66H    basis set group =>   3
Atom  67H    basis set group =>   3
Atom  68H    basis set group =>   3
Atom  69H    basis set group =>   3
Atom  70H    basis set group =>   3
Atom  71H    basis set group =>   3
Atom  72H    basis set group =>   3
Atom  73H    basis set group =>   3
Atom  74H    basis set group =>   3
Atom  75H    basis set group =>   3
Atom  76H    basis set group =>   3
Atom  77H    basis set group =>   3
Atom  78H    basis set group =>   3
Atom  79H    basis set group =>   3
Atom  80H    basis set group =>   3
Atom  81H    basis set group =>   3
----------------------------------
AUXILIARY/JK BASIS SET INFORMATION
----------------------------------
There are 3 groups of distinct atoms

 Group   1 Type C   : 15s13p12d5f5g contracted to 15s13p12d5f5g pattern {111111111111111/1111111111111/111111111111/11111/11111}
 Group   2 Type O   : 15s13p12d5f5g contracted to 15s13p12d5f5g pattern {111111111111111/1111111111111/111111111111/11111/11111}
 Group   3 Type H   : 12s4p3d2f contracted to 12s4p3d2f pattern {111111111111/1111/111/11}

Atom   0C    basis set group =>   1
Atom   1C    basis set group =>   1
Atom   2C    basis set group =>   1
Atom   3C    basis set group =>   1
Atom   4C    basis set group =>   1
Atom   5C    basis set group =>   1
Atom   6C    basis set group =>   1
Atom   7C    basis set group =>   1
Atom   8C    basis set group =>   1
Atom   9C    basis set group =>   1
Atom  10C    basis set group =>   1
Atom  11C    basis set group =>   1
Atom  12C    basis set group =>   1
Atom  13C    basis set group =>   1
Atom  14C    basis set group =>   1
Atom  15C    basis set group =>   1
Atom  16C    basis set group =>   1
Atom  17C    basis set group =>   1
Atom  18O    basis set group =>   2
Atom  19O    basis set group =>   2
Atom  20O    basis set group =>   2
Atom  21O    basis set group =>   2
Atom  22O    basis set group =>   2
Atom  23C    basis set group =>   1
Atom  24C    basis set group =>   1
Atom  25C    basis set group =>   1
Atom  26C    basis set group =>   1
Atom  27O    basis set group =>   2
Atom  28C    basis set group =>   1
Atom  29C    basis set group =>   1
Atom  30C    basis set group =>   1
Atom  31C    basis set group =>   1
Atom  32C    basis set group =>   1
Atom  33C    basis set group =>   1
Atom  34C    basis set group =>   1
Atom  35C    basis set group =>   1
Atom  36O    basis set group =>   2
Atom  37O    basis set group =>   2
Atom  38O    basis set group =>   2
Atom  39O    basis set group =>   2
Atom  40O    basis set group =>   2
Atom  41C    basis set group =>   1
Atom  42H    basis set group =>   3
Atom  43H    basis set group =>   3
Atom  44H    basis set group =>   3
Atom  45H    basis set group =>   3
Atom  46H    basis set group =>   3
Atom  47H    basis set group =>   3
Atom  48H    basis set group =>   3
Atom  49H    basis set group =>   3
Atom  50H    basis set group =>   3
Atom  51H    basis set group =>   3
Atom  52H    basis set group =>   3
Atom  53H    basis set group =>   3
Atom  54H    basis set group =>   3
Atom  55H    basis set group =>   3
Atom  56H    basis set group =>   3
Atom  57H    basis set group =>   3
Atom  58H    basis set group =>   3
Atom  59H    basis set group =>   3
Atom  60H    basis set group =>   3
Atom  61H    basis set group =>   3
Atom  62H    basis set group =>   3
Atom  63H    basis set group =>   3
Atom  64H    basis set group =>   3
Atom  65H    basis set group =>   3
Atom  66H    basis set group =>   3
Atom  67H    basis set group =>   3
Atom  68H    basis set group =>   3
Atom  69H    basis set group =>   3
Atom  70H    basis set group =>   3
Atom  71H    basis set group =>   3
Atom  72H    basis set group =>   3
Atom  73H    basis set group =>   3
Atom  74H    basis set group =>   3
Atom  75H    basis set group =>   3
Atom  76H    basis set group =>   3
Atom  77H    basis set group =>   3
Atom  78H    basis set group =>   3
Atom  79H    basis set group =>   3
Atom  80H    basis set group =>   3
Atom  81H    basis set group =>   3
---------------------------------
AUXILIARY/X BASIS SET INFORMATION
---------------------------------
There are 3 groups of distinct atoms

 Group   1 Type C   : 15s13p12d5f5g contracted to 15s13p12d5f5g pattern {111111111111111/1111111111111/111111111111/11111/11111}
 Group   2 Type O   : 15s13p12d5f5g contracted to 15s13p12d5f5g pattern {111111111111111/1111111111111/111111111111/11111/11111}
 Group   3 Type H   : 12s4p3d2f contracted to 12s4p3d2f pattern {111111111111/1111/111/11}

Atom   0C    basis set group =>   1
Atom   1C    basis set group =>   1
Atom   2C    basis set group =>   1
Atom   3C    basis set group =>   1
Atom   4C    basis set group =>   1
Atom   5C    basis set group =>   1
Atom   6C    basis set group =>   1
Atom   7C    basis set group =>   1
Atom   8C    basis set group =>   1
Atom   9C    basis set group =>   1
Atom  10C    basis set group =>   1
Atom  11C    basis set group =>   1
Atom  12C    basis set group =>   1
Atom  13C    basis set group =>   1
Atom  14C    basis set group =>   1
Atom  15C    basis set group =>   1
Atom  16C    basis set group =>   1
Atom  17C    basis set group =>   1
Atom  18O    basis set group =>   2
Atom  19O    basis set group =>   2
Atom  20O    basis set group =>   2
Atom  21O    basis set group =>   2
Atom  22O    basis set group =>   2
Atom  23C    basis set group =>   1
Atom  24C    basis set group =>   1
Atom  25C    basis set group =>   1
Atom  26C    basis set group =>   1
Atom  27O    basis set group =>   2
Atom  28C    basis set group =>   1
Atom  29C    basis set group =>   1
Atom  30C    basis set group =>   1
Atom  31C    basis set group =>   1
Atom  32C    basis set group =>   1
Atom  33C    basis set group =>   1
Atom  34C    basis set group =>   1
Atom  35C    basis set group =>   1
Atom  36O    basis set group =>   2
Atom  37O    basis set group =>   2
Atom  38O    basis set group =>   2
Atom  39O    basis set group =>   2
Atom  40O    basis set group =>   2
Atom  41C    basis set group =>   1
Atom  42H    basis set group =>   3
Atom  43H    basis set group =>   3
Atom  44H    basis set group =>   3
Atom  45H    basis set group =>   3
Atom  46H    basis set group =>   3
Atom  47H    basis set group =>   3
Atom  48H    basis set group =>   3
Atom  49H    basis set group =>   3
Atom  50H    basis set group =>   3
Atom  51H    basis set group =>   3
Atom  52H    basis set group =>   3
Atom  53H    basis set group =>   3
Atom  54H    basis set group =>   3
Atom  55H    basis set group =>   3
Atom  56H    basis set group =>   3
Atom  57H    basis set group =>   3
Atom  58H    basis set group =>   3
Atom  59H    basis set group =>   3
Atom  60H    basis set group =>   3
Atom  61H    basis set group =>   3
Atom  62H    basis set group =>   3
Atom  63H    basis set group =>   3
Atom  64H    basis set group =>   3
Atom  65H    basis set group =>   3
Atom  66H    basis set group =>   3
Atom  67H    basis set group =>   3
Atom  68H    basis set group =>   3
Atom  69H    basis set group =>   3
Atom  70H    basis set group =>   3
Atom  71H    basis set group =>   3
Atom  72H    basis set group =>   3
Atom  73H    basis set group =>   3
Atom  74H    basis set group =>   3
Atom  75H    basis set group =>   3
Atom  76H    basis set group =>   3
Atom  77H    basis set group =>   3
Atom  78H    basis set group =>   3
Atom  79H    basis set group =>   3
Atom  80H    basis set group =>   3
Atom  81H    basis set group =>   3
--------------------------------------------------------------------------
WARNING: There is at least one non-excluded one OpenFabrics device found,
but there are no active ports detected (or Open MPI was unable to use
them).  This is most certainly not what you wanted.  Check your
cables, subnet manager configuration, etc.  The openib BTL will be
ignored for this job.

  Local host: c01b01n04
--------------------------------------------------------------------------
--------------------------------------------------------------------------
WARNING: There was an error initializing an OpenFabrics device.

  Local host:   c01b01n04
  Local device: mlx5_0
--------------------------------------------------------------------------
[c01b01n04:2223677] 10 more processes have sent help message help-mpi-btl-openib.txt / no active ports found
[c01b01n04:2223677] Set MCA parameter "orte_base_help_aggregate" to 0 to see all help / error messages
[c01b01n04:2223677] 48 more processes have sent help message help-mpi-btl-openib.txt / error in device init


           ************************************************************
           *        Program running with 60 parallel MPI-processes    *
           *              working on a common directory               *
           ************************************************************
------------------------------------------------------------------------------
                             ORCA STARTUP CALCULATIONS
                           -- RI-GTO INTEGRALS CHOSEN --
------------------------------------------------------------------------------
------------------------------------------------------------------------------
                   ___                                                        
                  /   \      - P O W E R E D   B Y -                         
                 /     \                                                     
                 |  |  |   _    _      __       _____    __    __             
                 |  |  |  | |  | |    /  \     |  _  \  |  |  /  |          
                  \  \/   | |  | |   /    \    | | | |  |  | /  /          
                 / \  \   | |__| |  /  /\  \   | |_| |  |  |/  /          
                |  |  |   |  __  | /  /__\  \  |    /   |      \           
                |  |  |   | |  | | |   __   |  |    \   |  |\   \          
                \     /   | |  | | |  |  |  |  | |\  \  |  | \   \       
                 \___/    |_|  |_| |__|  |__|  |_| \__\ |__|  \__/        
                                                                              
                      - O R C A' S   B I G   F R I E N D -                    
                                      &                                       
                       - I N T E G R A L  F E E D E R -                       
                                                                              
 v1 FN, 2020, v2 2021, v3 2022-2024                                           
------------------------------------------------------------------------------


----------------------
SHARK INTEGRAL PACKAGE
----------------------

Number of atoms                             ...     82
Number of basis functions                   ...   2072
Number of shells                            ...    744
Maximum angular momentum                    ...      3
Integral batch strategy                     ... SHARK/LIBINT Hybrid
RI-J (if used) integral strategy            ... SPLIT-RIJ (Revised 2003 algorithm where possible)
Printlevel                                  ...      1
Contraction scheme used                     ... SEGMENTED contraction
Prescreening option                         ... SCHWARTZ
   Thresh                                   ... 1.000e-10
   Tcut                                     ... 1.000e-11
   Tpresel                                  ... 1.000e-11 
Coulomb Range Separation                    ... NOT USED
Exchange Range Separation                   ... NOT USED
Multipole approximations                    ... NOT USED
Finite Nucleus Model                        ... NOT USED
CABS basis                                  ... NOT available
Auxiliary Coulomb fitting basis             ... AVAILABLE
   # of basis functions in Aux-J            ...  10268
   # of shells in Aux-J                     ...   2940
   Maximum angular momentum in Aux-J        ...      4
Auxiliary J/K fitting basis                 ... AVAILABLE
   # of basis functions in Aux-JK           ...  10268
   # of shells in Aux-JK                    ...   2940
   Maximum angular momentum in Aux-JK       ...      4
Auxiliary Correlation fitting basis         ... AVAILABLE
   # of basis functions in Aux-C            ...  10268
   # of shells in Aux-C                     ...   2940
   Maximum angular momentum in Aux-C        ...      4
Auxiliary 'external' fitting basis          ... NOT available

Checking pre-screening integrals            ... done (  0.0 sec) Dimension = 744
   => SHARK Basis and OBASIS are compatible. Storing Pre-screening
Shell pair information
Shell pair cut-off parameter TPreSel        ...   1.0e-11
Total number of shell pairs                 ...    277140
Shell pairs after pre-screening             ...    150436
Total number of primitive shell pairs       ...    823733
Primitive shell pairs kept                  ...    275389
          la=0 lb=0:  28663 shell pairs
          la=1 lb=0:  50020 shell pairs
          la=1 lb=1:  20447 shell pairs
          la=2 lb=0:  19734 shell pairs
          la=2 lb=1:  14894 shell pairs
          la=2 lb=2:   2646 shell pairs
          la=3 lb=0:   6797 shell pairs
          la=3 lb=1:   5114 shell pairs
          la=3 lb=2:   1787 shell pairs
          la=3 lb=3:    334 shell pairs

Checking whether 4 symmetric matrices of dimension 2072 fit in memory
:Max Core in MB      =   5000.00
 MB in use           =    185.77
 MB left             =   4814.23
 MB needed           =     65.54
 Data fit in memory  = YES
Calculating RI/J V-Matrix + Cholesky decomp.... done (  6.3 sec)
Calculating RI/JK V-Matrix + Cholesky decomp.... done (  3.9 sec)
Calculating RI/C V-Matrix + Cholesky decomp.... done (  3.9 sec)
Calculating Nuclear repulsion               ... done (  0.0 sec) ENN=   5695.283990042529 Eh

Diagonalization of the overlap matrix:
Smallest eigenvalue                        ... 7.418e-06
Time for diagonalization                   ...    4.675 sec
Threshold for overlap eigenvalues          ... 1.000e-07
Number of eigenvalues below threshold      ... 0
Time for construction of square roots      ...    0.941 sec
Total time needed                          ...    5.650 sec

-------------------
DFT GRID GENERATION
-------------------

General Integration Accuracy     IntAcc      ... 4.388
Radial Grid Type                 RadialGrid  ... OptM3 with GC (2021)
Angular Grid (max. ang.)         AngularGrid ... 4 (Lebedev-302)
Angular grid pruning method      GridPruning ... 4 (adaptive)
Weight generation scheme         WeightScheme... mBecke (2022)
Basis function cutoff            BFCut       ... 1.0000e-10
Integration weight cutoff        WCut        ... 1.0000e-14
Partially contracted basis set               ... off
Rotationally invariant grid construction     ... off
Angular grids for H and He will be reduced by one unit
Diffuse basis detected: some atoms will have their outermost
                        angular grid increased by 1.

Total number of grid points                  ...   376838
Total number of batches                      ...     5927
Average number of points per batch           ...       63
Average number of grid points per atom       ...     4596
Grids setup in   2.6 sec
Initializing property integral containers    ... done (  0.2 sec)

SHARK setup successfully completed in  31.4 seconds

Maximum memory used throughout the entire STARTUP-calculation: 257.8 MB
--------------------------------------------------------------------------
WARNING: There was an error initializing an OpenFabrics device.

  Local host:   c01b01n04
  Local device: mlx5_0
--------------------------------------------------------------------------
--------------------------------------------------------------------------
WARNING: There is at least one non-excluded one OpenFabrics device found,
but there are no active ports detected (or Open MPI was unable to use
them).  This is most certainly not what you wanted.  Check your
cables, subnet manager configuration, etc.  The openib BTL will be
ignored for this job.

  Local host: c01b01n04
--------------------------------------------------------------------------


           ************************************************************
           *        Program running with 60 parallel MPI-processes    *
           *              working on a common directory               *
           ************************************************************
-------------------------------------------------------------------------------
                                 ORCA GUESS
                   Start orbitals & Density for SCF / CASSCF
-------------------------------------------------------------------------------

------------
SCF SETTINGS
------------
Hamiltonian:
 Density Functional     Method          .... DFT(GTOs)
 Exchange Functional    Exchange        .... TPSS
 Correlation Functional Correlation     .... TPSS
 LDA part of GGA corr.  LDAOpt          .... PW91-LDA
 Gradients option       PostSCFGGA      .... off
   NL short-range parameter             ....  5.000000
 RI-approximation to the Coulomb term is turned on
   Number of AuxJ basis functions       .... 10268


General Settings:
 Integral files         IntName         .... nmr-conf-5
 Hartree-Fock type      HFTyp           .... RHF
 Total Charge           Charge          ....    0
 Multiplicity           Mult            ....    1
 Number of Electrons    NEL             ....  314
 Basis Dimension        Dim             .... 2072
 Nuclear Repulsion      ENuc            ....   5695.2839900425 Eh

Convergence Acceleration:
 AO-DIIS                CNVDIIS         .... on
   Start iteration      DIISMaxIt       ....    12
   Startup error        DIISStart       ....  0.200000
   # of expansion vecs  DIISMaxEq       ....     5
   Bias factor          DIISBfac        ....   1.050
   Max. coefficient     DIISMaxC        ....  10.000
 MO-DIIS                CNVKDIIS        .... off
 Trust-Rad. Augm. Hess. CNVTRAH         .... auto
   Auto Start mean grad. ratio tolernc. ....  1.125000
   Auto Start start iteration           ....    50
   Auto Start num. interpolation iter.  ....    10
   Max. Number of Micro iterations      ....    24
   Max. Number of Macro iterations      .... Maxiter - #DIIS iter
   Number of Davidson start vectors     ....     2
   Converg. threshold    (grad. norm)   ....   5.000e-05
   Grad. Scal. Fac. for Micro threshold ....   0.100
   Minimum threshold for Micro iter.    ....   1.000e-02
   NR start threshold (gradient norm)   ....   1.000e-04
   Initial trust radius                 ....   0.400
   Minimum AH scaling param. (alpha)    ....   1.000
   Maximum AH scaling param. (alpha)    .... 1000.000
   Quad. conv. algorithm                .... NR
   White noise on init. David. guess    .... on
   Maximum white noise                  ....   0.010
   Pseudo random numbers                .... off
   Inactive MOs                         .... canonical
   Orbital update algorithm             .... Taylor
   Preconditioner                       .... Diag
   Full preconditioner red. dimension   ....   250
 SOSCF                 CNVSOSCF           .... on
   Start iteration     SOSCFMaxIt         ....   150
   Startup grad/error  SOSCFStart         ....  0.003300
   Hessian update      SOSCFHessUp        .... L-BFGS
   Autom. constraints  SOSCFAutoConstrain .... off
 Level Shifting         CNVShift        .... on
   Level shift para.    LevelShift      ....    0.2500
   Turn off err/grad.   ShiftErr        ....    0.0010
 Zerner damping         CNVZerner       .... off
 Static damping         CNVDamp         .... on
   Fraction old density DampFac         ....    0.7000
   Max. Damping (<1)    DampMax         ....    0.9800
   Min. Damping (>=0)   DampMin         ....    0.0000
   Turn off err/grad.   DampErr         ....    0.1000

SCF Procedure:
 Maximum # iterations   MaxIter         ....   125
 SCF integral mode      SCFMode         .... Direct
   Integral package                     .... SHARK and LIBINT hybrid scheme
 Reset frequency        DirectResetFreq ....    20
 Integral Threshold     Thresh          ....  1.000e-10 Eh
 Primitive CutOff       TCut            ....  1.000e-11 Eh

Convergence Tolerance:
 Convergence Check Mode ConvCheckMode   .... Total+1el-Energy
 Convergence forced     ConvForced      .... 0
 Energy Change          TolE            ....  1.000e-06 Eh
 1-El. energy change                    ....  1.000e-03 Eh
 Orbital Gradient       TolG            ....  5.000e-05
 Orbital Rotation angle TolX            ....  5.000e-05
 DIIS Error             TolErr          ....  1.000e-06

------------------------------
INITIAL GUESS: MODEL POTENTIAL
------------------------------
Loading Hartree-Fock densities                     ... done
Calculating cut-offs                               ... done
Initializing the effective Hamiltonian             ... done
Setting up the integral package (SHARK)            ... done
Starting the Coulomb interaction                   ... done (   1.8 sec)
Making the grid                                    ... [c01b01n04:2224065] 49 more processes have sent help message help-mpi-btl-openib.txt / error in device init
[c01b01n04:2224065] Set MCA parameter "orte_base_help_aggregate" to 0 to see all help / error messages
[c01b01n04:2224065] 9 more processes have sent help message help-mpi-btl-openib.txt / no active ports found
done (   0.9 sec)
Mapping shells                                     ... done
Starting the XC term evaluation                    ... done (   0.2 sec)
  promolecular density results
     # of electrons  =    313.991462194
     EX              =   -260.291412199
     EC              =    -10.635372306
     EX+EC           =   -270.926784505
Transforming the Hamiltonian                       ... done (   0.3 sec)
Diagonalizing the Hamiltonian                      ... done (   0.6 sec)
Back transforming the eigenvectors                 ... done (   0.2 sec)
Now organizing SCF variables                       ... done
                      ------------------
                      INITIAL GUESS DONE (   5.0 sec)
                      ------------------
             **** ENERGY FILE WAS UPDATED (nmr-conf-5.en.tmp) ****
Finished Guess after   9.9 sec
Maximum memory used throughout the entire GUESS-calculation: 289.4 MB
--------------------------------------------------------------------------
WARNING: There was an error initializing an OpenFabrics device.

  Local host:   c01b01n04
  Local device: mlx5_0
--------------------------------------------------------------------------
--------------------------------------------------------------------------
WARNING: There is at least one non-excluded one OpenFabrics device found,
but there are no active ports detected (or Open MPI was unable to use
them).  This is most certainly not what you wanted.  Check your
cables, subnet manager configuration, etc.  The openib BTL will be
ignored for this job.

  Local host: c01b01n04
--------------------------------------------------------------------------


           ************************************************************
           *        Program running with 60 parallel MPI-processes    *
           *              working on a common directory               *
           ************************************************************

-------------------------------------------------------------------------------------------
                                      ORCA LEAN-SCF
                              memory conserving SCF solver
-------------------------------------------------------------------------------------------

--------------------
CPCM SOLVATION MODEL
--------------------
CPCM parameters:
  Epsilon                                         ...      33.4280
  Refrac                                          ...       1.3288
  Rsolv                                           ...       1.3000
  Surface type                                    ... GAUSSIAN VDW
  Discretization scheme                           ... Constant charge density
    Threshold for H atoms                         ...       5.0000 (charges/Ang^2)
    Threshold for non-H atoms                     ...       5.0000 (charges/Ang^2)
  Epsilon function type                           ...         CPCM
Solvent:                                          ... METHANOL
Radii:
  Scheme                                          ... Element-dependent radii
  Radius for C  used is    3.8550 Bohr (=   2.0400 Ang.)
  Radius for O  used is    3.4469 Bohr (=   1.8240 Ang.)
  Radius for H  used is    2.4944 Bohr (=   1.3200 Ang.)
Calculating surface                               ...        done! (  0.0s)
Cavity surface points                             ...         6226
Cavity Volume                                     ...    4534.1230
Cavity Surface-area                               ...    2097.4711
Calculating surface distance matrix               ...        done! (  0.2s)
Performing Cholesky decomposition & store         ...        done! (  0.7s)
Overall time for CPCM initialization              ...                 0.9s

[c01b01n04:2224579] 50 more processes have sent help message help-mpi-btl-openib.txt / error in device init
[c01b01n04:2224579] Set MCA parameter "orte_base_help_aggregate" to 0 to see all help / error messages
[c01b01n04:2224579] 8 more processes have sent help message help-mpi-btl-openib.txt / no active ports found
----------------------------------------D-I-I-S--------------------------------------------
Iteration    Energy (Eh)           Delta-E    RMSDP     MaxDP     DIISErr   Damp  Time(sec)
-------------------------------------------------------------------------------------------
               ***  Starting incremental Fock matrix formation  ***
    1    -2033.0203259383288241     0.00e+00  7.86e-03  2.94e-01  2.36e-01  0.700  10.6
    2    -2033.4271436256876768    -4.07e-01  6.42e-03  2.30e-01  8.25e-02  0.700   9.2
                               ***Turning on AO-DIIS***
    3    -2033.5794539755997903    -1.52e-01  2.81e-03  7.84e-02  2.46e-02  0.700   7.3
    4    -2033.6713095807826903    -9.19e-02  4.73e-03  8.31e-02  1.14e-02  0.000   6.7
    5    -2033.8746850424804506    -2.03e-01  1.22e-03  3.27e-02  4.72e-03  0.000   6.6
                              *** Initializing SOSCF ***
---------------------------------------S-O-S-C-F--------------------------------------
Iteration    Energy (Eh)           Delta-E    RMSDP     MaxDP     MaxGrad    Time(sec)
--------------------------------------------------------------------------------------
    6    -2033.8760544051856414    -1.37e-03  3.83e-04  5.50e-03  1.23e-03     7.5
               *** Restarting incremental Fock matrix formation ***
    7    -2033.8761602189515543    -1.06e-04  3.05e-04  5.71e-03  1.62e-04     6.3
    8    -2033.8761383514593035     2.19e-05  7.88e-05  2.38e-03  6.13e-04     5.5
    9    -2033.8761762190179070    -3.79e-05  7.14e-05  1.21e-03  1.20e-04     5.3
   10    -2033.8761764186310756    -2.00e-07  1.96e-05  4.20e-04  1.09e-04     5.3
                 **** Energy Check signals convergence ****

               *****************************************************
               *                     SUCCESS                       *
               *           SCF CONVERGED AFTER  10 CYCLES          *
               *****************************************************

             **** ENERGY FILE WAS UPDATED (nmr-conf-5.en.tmp) ****

----------------
TOTAL SCF ENERGY
----------------

Total Energy       :      -2033.87617702040643 Eh          -55344.58444 eV

Components:
Nuclear Repulsion  :       5695.28399004252879 Eh          154976.55622 eV
Electronic Energy  :      -7729.11266512439579 Eh         -210319.84807 eV
One Electron Energy:     -14118.20358124450649 Eh         -384175.85057 eV
Two Electron Energy:       6389.09091612011071 Eh          173856.00250 eV
CPCM Dielectric    :         -0.04750193853988 Eh              -1.29259 eV

Virial components:
Potential Energy   :      -4061.11488605661634 Eh         -110508.55420 eV
Kinetic Energy     :       2027.23870903621014 Eh           55163.96975 eV
Virial Ratio       :          2.00327414228754

DFT components:
N(Alpha)           :      157.000162465595 electrons
N(Beta)            :      157.000162465595 electrons
N(Total)           :      314.000324931190 electrons
E(X)               :     -268.088384146617 Eh       
E(C)               :      -10.601045138736 Eh       
E(XC)              :     -278.689429285353 Eh       

CPCM Solvation Model Properties:
Surface-charge          :         -0.04288950681894
Corrected charge        :          0.00000000000000
Outlying charge corr.   :          0.00007913591257 Eh               0.00215 eV
Free-energy (cav+disp)  :  This term is not implemented in the current solvation scheme

---------------
SCF CONVERGENCE
---------------

  Last Energy change         ...    1.9961e-07  Tolerance :   1.0000e-06
  Last MAX-Density change    ...    4.1986e-04  Tolerance :   1.0000e-05
  Last RMS-Density change    ...    1.9571e-05  Tolerance :   1.0000e-06
  Last DIIS Error            ...    1.2316e-03  Tolerance :   1.0000e-06
  Last Orbital Gradient      ...    1.0941e-04  Tolerance :   5.0000e-05
  Last Orbital Rotation      ...    2.2436e-04  Tolerance :   5.0000e-05


----------------
ORBITAL ENERGIES
----------------

  NO   OCC          E(Eh)            E(eV) 
   0   2.0000     -18.922246      -514.9005 
   1   2.0000     -18.920193      -514.8446 
   2   2.0000     -18.919109      -514.8151 
   3   2.0000     -18.911800      -514.6162 
   4   2.0000     -18.910062      -514.5690 
   5   2.0000     -18.909627      -514.5571 
   6   2.0000     -18.900033      -514.2960 
   7   2.0000     -18.894216      -514.1377 
   8   2.0000     -18.877491      -513.6826 
   9   2.0000     -18.874169      -513.5923 
  10   2.0000     -18.867425      -513.4087 
  11   2.0000     -10.049887      -273.4713 
  12   2.0000     -10.049402      -273.4581 
  13   2.0000     -10.045901      -273.3629 
  14   2.0000     -10.044771      -273.3321 
  15   2.0000     -10.042790      -273.2782 
  16   2.0000     -10.042010      -273.2570 
  17   2.0000     -10.041281      -273.2371 
  18   2.0000     -10.039911      -273.1999 
  19   2.0000     -10.036807      -273.1154 
  20   2.0000     -10.034300      -273.0472 
  21   2.0000     -10.032924      -273.0097 
  22   2.0000     -10.032230      -272.9909 
  23   2.0000     -10.031425      -272.9689 
  24   2.0000     -10.029029      -272.9037 
  25   2.0000     -10.024667      -272.7851 
  26   2.0000     -10.016254      -272.5561 
  27   2.0000      -9.993765      -271.9442 
  28   2.0000      -9.991107      -271.8718 
  29   2.0000      -9.990077      -271.8438 
  30   2.0000      -9.988739      -271.8074 
  31   2.0000      -9.987881      -271.7841 
  32   2.0000      -9.986417      -271.7442 
  33   2.0000      -9.983927      -271.6765 
  34   2.0000      -9.983457      -271.6637 
  35   2.0000      -9.983161      -271.6556 
  36   2.0000      -9.982863      -271.6475 
  37   2.0000      -9.982190      -271.6292 
  38   2.0000      -9.981327      -271.6057 
  39   2.0000      -9.979314      -271.5509 
  40   2.0000      -9.974728      -271.4261 
  41   2.0000      -9.974262      -271.4135 
  42   2.0000      -1.017815       -27.6962 
  43   2.0000      -1.011818       -27.5330 
  44   2.0000      -1.006754       -27.3952 
  45   2.0000      -0.996750       -27.1229 
  46   2.0000      -0.991753       -26.9870 
  47   2.0000      -0.983984       -26.7756 
  48   2.0000      -0.979283       -26.6477 
  49   2.0000      -0.965530       -26.2734 
  50   2.0000      -0.949452       -25.8359 
  51   2.0000      -0.946371       -25.7521 
  52   2.0000      -0.939837       -25.5743 
  53   2.0000      -0.801008       -21.7965 
  54   2.0000      -0.797415       -21.6988 
  55   2.0000      -0.793934       -21.6040 
  56   2.0000      -0.758784       -20.6475 
  57   2.0000      -0.734213       -19.9790 
  58   2.0000      -0.719187       -19.5701 
  59   2.0000      -0.704650       -19.1745 
  60   2.0000      -0.701950       -19.1010 
  61   2.0000      -0.697204       -18.9719 
  62   2.0000      -0.696557       -18.9543 
  63   2.0000      -0.685610       -18.6564 
  64   2.0000      -0.669997       -18.2315 
  65   2.0000      -0.653821       -17.7914 
  66   2.0000      -0.649444       -17.6723 
  67   2.0000      -0.648742       -17.6532 
  68   2.0000      -0.638368       -17.3709 
  69   2.0000      -0.624762       -17.0006 
  70   2.0000      -0.614910       -16.7325 
  71   2.0000      -0.609476       -16.5847 
  72   2.0000      -0.576233       -15.6801 
  73   2.0000      -0.570348       -15.5200 
  74   2.0000      -0.564064       -15.3490 
  75   2.0000      -0.559370       -15.2212 
  76   2.0000      -0.552086       -15.0230 
  77   2.0000      -0.544584       -14.8189 
  78   2.0000      -0.538207       -14.6454 
  79   2.0000      -0.533361       -14.5135 
  80   2.0000      -0.514443       -13.9987 
  81   2.0000      -0.512156       -13.9365 
  82   2.0000      -0.504852       -13.7377 
  83   2.0000      -0.499266       -13.5857 
  84   2.0000      -0.487708       -13.2712 
  85   2.0000      -0.475876       -12.9493 
  86   2.0000      -0.471949       -12.8424 
  87   2.0000      -0.469411       -12.7733 
  88   2.0000      -0.462858       -12.5950 
  89   2.0000      -0.459053       -12.4915 
  90   2.0000      -0.451113       -12.2754 
  91   2.0000      -0.449200       -12.2234 
  92   2.0000      -0.446854       -12.1595 
  93   2.0000      -0.443059       -12.0562 
  94   2.0000      -0.434832       -11.8324 
  95   2.0000      -0.433041       -11.7837 
  96   2.0000      -0.429029       -11.6745 
  97   2.0000      -0.426011       -11.5924 
  98   2.0000      -0.424358       -11.5474 
  99   2.0000      -0.419950       -11.4274 
 100   2.0000      -0.418454       -11.3867 
 101   2.0000      -0.415293       -11.3007 
 102   2.0000      -0.406555       -11.0629 
 103   2.0000      -0.404907       -11.0181 
 104   2.0000      -0.400936       -10.9100 
 105   2.0000      -0.400337       -10.8937 
 106   2.0000      -0.395582       -10.7643 
 107   2.0000      -0.392313       -10.6754 
 108   2.0000      -0.387260       -10.5379 
 109   2.0000      -0.385212       -10.4822 
 110   2.0000      -0.383518       -10.4361 
 111   2.0000      -0.381119       -10.3708 
 112   2.0000      -0.377917       -10.2837 
 113   2.0000      -0.375436       -10.2161 
 114   2.0000      -0.374754       -10.1976 
 115   2.0000      -0.370846       -10.0912 
 116   2.0000      -0.370125       -10.0716 
 117   2.0000      -0.364098        -9.9076 
[...]
 
 sDSO           -91.503           17.948           32.900  iso=     -13.552
 sPSO           115.069            7.989            0.971  iso=      41.343
        ---------------  ---------------  ---------------
 Total           23.565           25.937           33.871  iso=      27.791

 Orientation: 
  X           0.5531522   -0.4513293   -0.7002318
  Y          -0.4455389    0.5499588   -0.7064280
  Z           0.7039302    0.7027426    0.1031261

 --------------
 Nucleus  73H :
 --------------

Diamagnetic contribution to the shielding tensor (ppm) : 
          -142.926         -0.003       -46.958
           -98.925         49.163       -17.005
           -55.032         10.441      -111.607

Paramagnetic contribution to the shielding tensor (ppm): 
           166.846         -0.048        45.444
            97.763        -15.755        16.790
            54.026        -12.458       136.335

Total shielding tensor (ppm): 
            23.920         -0.052        -1.514
            -1.162         33.408        -0.215
            -1.006         -2.017        24.728


 Diagonalized sT*s matrix:
 
 sDSO          -186.803          -71.053           52.487  iso=     -68.457
 sPSO           209.678           96.668          -18.919  iso=      95.809
        ---------------  ---------------  ---------------
 Total           22.874           25.614           33.567  iso=      27.352

 Orientation: 
  X          -0.7925438   -0.6071599   -0.0568430
  Y          -0.1077826    0.0477233    0.9930284
  Z          -0.6002143    0.7931452   -0.1032641

 --------------
 Nucleus  74H :
 --------------

Diamagnetic contribution to the shielding tensor (ppm) : 
          -127.207         33.859       -52.370
           -91.908         63.710       -26.590
           -23.526        -55.494       -53.634

Paramagnetic contribution to the shielding tensor (ppm): 
           150.980        -33.906        52.148
            93.255        -35.453        24.566
            23.387         54.560        85.020

Total shielding tensor (ppm): 
            23.773         -0.048        -0.222
             1.347         28.257        -2.025
            -0.139         -0.934        31.386


 Diagonalized sT*s matrix:
 
 sDSO          -113.585            3.902           -7.448  iso=     -39.044
 sPSO           137.266           23.838           39.442  iso=      66.849
        ---------------  ---------------  ---------------
 Total           23.681           27.740           31.994  iso=      27.805

 Orientation: 
  X           0.9879452    0.1447663   -0.0548368
  Y          -0.1547798    0.9174417   -0.3665295
  Z          -0.0027515    0.3705987    0.9287890

 --------------
 Nucleus  75H :
 --------------

Diamagnetic contribution to the shielding tensor (ppm) : 
             7.540       -242.958        59.332
           -28.978       -130.386        59.848
            13.561         11.278       -93.373

Paramagnetic contribution to the shielding tensor (ppm): 
            22.761        243.475       -60.204
            26.144        160.383       -50.798
           -14.384         -2.617       124.082

Total shielding tensor (ppm): 
            30.301          0.517        -0.872
            -2.833         29.997         9.049
            -0.823          8.661        30.708


 Diagonalized sT*s matrix:
 
 sDSO          -149.350          -16.417          -50.453  iso=     -72.073
 sPSO           170.838           46.504           89.884  iso=     102.409
        ---------------  ---------------  ---------------
 Total           21.488           30.088           39.431  iso=      30.336

 Orientation: 
  X           0.0043062    0.9854134   -0.1701231
  Y           0.7238317    0.1143093    0.6804418
  Z          -0.6899631    0.1260706    0.7127812

 --------------
 Nucleus  76H :
 --------------

Diamagnetic contribution to the shielding tensor (ppm) : 
          -136.031         29.224       -59.003
          -115.615         66.694       -25.089
            18.203        -27.087       -64.138

Paramagnetic contribution to the shielding tensor (ppm): 
           169.472        -31.602        46.814
           112.850        -44.557        28.420
           -31.774         28.451        94.929

Total shielding tensor (ppm): 
            33.442         -2.377       -12.190
            -2.765         22.137         3.332
           -13.571          1.364        30.791


 Diagonalized sT*s matrix:
 
 sDSO          -113.049           56.964          -77.390  iso=     -44.492
 sPSO           132.219          -35.342          122.967  iso=      73.281
        ---------------  ---------------  ---------------
 Total           19.170           21.623           45.576  iso=      28.790

 Orientation: 
  X          -0.6603875    0.1187105   -0.7414824
  Y           0.0267071    0.9905137    0.1347939
  Z          -0.7504499   -0.0692133    0.6572933

 --------------
 Nucleus  77H :
 --------------

Diamagnetic contribution to the shielding tensor (ppm) : 
           -56.191        125.943        -3.573
           -47.494        117.485        -8.757
            29.025        -70.288        -8.441

Paramagnetic contribution to the shielding tensor (ppm): 
            80.571       -125.435         0.926
            47.889        -78.489         5.675
           -31.306         65.359        36.845

Total shielding tensor (ppm): 
            24.381          0.508        -2.647
             0.395         38.995        -3.083
            -2.281         -4.929        28.405


 Diagonalized sT*s matrix:
 
 sDSO           -30.755          -48.921          132.529  iso=      17.618
 sPSO            53.842           77.184          -92.098  iso=      12.976
        ---------------  ---------------  ---------------
 Total           23.087           28.263           40.431  iso=      30.594

 Orientation: 
  X           0.8760548   -0.4762623   -0.0755128
  Y           0.0887048    0.3130902   -0.9455718
  Z           0.4739825    0.8216744    0.3165309

 --------------
 Nucleus  78H :
 --------------

Diamagnetic contribution to the shielding tensor (ppm) : 
          -109.700        -15.115       -13.886
           -97.679         39.224        -2.814
           -50.768         17.331       -36.069

Paramagnetic contribution to the shielding tensor (ppm): 
           132.459         19.515        16.880
           104.008        -18.592         5.568
            53.440        -17.741        71.656

Total shielding tensor (ppm): 
            22.760          4.400         2.994
             6.330         20.632         2.754
             2.672         -0.410        35.587


 Diagonalized sT*s matrix:
 
 sDSO            38.349          -86.922          -57.971  iso=     -35.515
 sPSO           -22.150          113.175           94.498  iso=      61.841
        ---------------  ---------------  ---------------
 Total           16.198           26.254           36.527  iso=      26.326

 Orientation: 
  X           0.6298807    0.7316101    0.2607621
  Y          -0.7735695    0.6210093    0.1262447
  Z          -0.0695738   -0.2812367    0.9571131

 --------------
 Nucleus  79H :
 --------------

Diamagnetic contribution to the shielding tensor (ppm) : 
           100.387        -82.370       -24.240
            42.859         -3.400       -15.224
          -126.047        100.875        11.546

Paramagnetic contribution to the shielding tensor (ppm): 
           -74.637         83.930        23.446
           -42.323         33.568        14.157
           126.025       -103.614        15.887

Total shielding tensor (ppm): 
            25.750          1.561        -0.794
             0.536         30.169        -1.067
            -0.022         -2.739        27.433


 Diagonalized sT*s matrix:
 
 sDSO           107.050           25.740          -24.256  iso=      36.178
 sPSO           -81.535            0.731           55.622  iso=      -8.394
        ---------------  ---------------  ---------------
 Total           25.515           26.471           31.366  iso=      27.784

 Orientation: 
  X           0.9768693    0.1091621   -0.1838749
  Y          -0.2129657    0.4191006   -0.8826099
  Z          -0.0192855    0.9013536    0.4326543

 --------------
 Nucleus  80H :
 --------------

Diamagnetic contribution to the shielding tensor (ppm) : 
            11.378       -177.121       -14.858
           -25.430        -85.964         1.535
           -94.096         99.532      -121.270

Paramagnetic contribution to the shielding tensor (ppm): 
            20.707        177.722        10.615
            26.221        110.989         0.647
            89.760        -99.125       148.762

Total shielding tensor (ppm): 
            32.085          0.601        -4.242
             0.790         25.025         2.182
            -4.336          0.408        27.492


 Diagonalized sT*s matrix:
 
 sDSO          -101.489         -118.907           24.540  iso=     -65.286
 sPSO           124.995          145.350           10.114  iso=      93.486
        ---------------  ---------------  ---------------
 Total           23.506           26.442           34.654  iso=      28.201

 Orientation: 
  X          -0.3638438    0.3641014   -0.8573493
  Y           0.7061801    0.7080315    0.0009984
  Z          -0.6073939    0.6050798    0.5147340

 --------------
 Nucleus  81H :
 --------------

Diamagnetic contribution to the shielding tensor (ppm) : 
           -28.357        -50.787       -28.803
           -34.110         -0.472        -5.011
          -107.984         89.979       -64.148

Paramagnetic contribution to the shielding tensor (ppm): 
            54.974         53.946        26.711
            37.095         24.536         6.145
           109.317        -87.353        94.115

Total shielding tensor (ppm): 
            26.617          3.159        -2.092
             2.985         24.065         1.134
             1.332          2.626        29.967


 Diagonalized sT*s matrix:
 
 sDSO            -2.767          -31.335          -58.874  iso=     -30.992
 sPSO            24.401           59.745           89.479  iso=      57.875
        ---------------  ---------------  ---------------
 Total           21.634           28.410           30.604  iso=      26.883

 Orientation: 
  X           0.5322285    0.8205968   -0.2082156
  Y          -0.8219666    0.4419724   -0.3592092
  Z           0.2027404   -0.3623276   -0.9097335



--------------------------------
CHEMICAL SHIELDING SUMMARY (ppm)
--------------------------------


  Nucleus  Element    Isotropic     Anisotropy
  -------  -------  ------------   ------------
      0       C           24.581        124.892 
      1       C           46.599         92.020 
      2       C           24.097        121.554 
      3       C           77.656        131.266 
      4       C           39.375        194.648 
      5       C           76.295        126.988 
      6       C          147.114         32.220 
      7       C          133.006         19.535 
      8       C          139.062         25.416 
      9       C          143.444         35.723 
     10       C           44.502        182.081 
     11       C           70.681        155.469 
     12       C           30.284        117.807 
     13       C           31.993        123.503 
     14       C           66.999        144.114 
     15       C           56.240        147.923 
     16       C          112.936         63.289 
     17       C          107.741         71.203 
     23       C           99.192         49.789 
     24       C           94.401         30.614 
     25       C           43.827        180.336 
     26       C          109.518         60.962 
     28       C           74.220        158.750 
     29       C           30.863        120.213 
     30       C           32.395        122.214 
     31       C           66.896        147.755 
     32       C           57.385        154.612 
     33       C          124.184         76.988 
     34       C          123.534         74.923 
     35       C          124.013         80.520 
     41       C          124.374         76.219 
     42       H           25.875          9.191 
     43       H           25.737          9.896 
     44       H           29.005          4.551 
     45       H           29.712          6.669 
     46       H           30.780          4.715 
     47       H           28.717          3.942 
     48       H           29.279          4.456 
     49       H           28.992          8.380 
     50       H           24.560          9.972 
     51       H           24.656          3.141 
     52       H           24.684          5.568 
     53       H           27.937          4.735 
     54       H           28.067          6.937 
     55       H           27.950          4.034 
     56       H           27.656          6.436 
     57       H           25.287         13.169 
     58       H           26.499          5.103 
     59       H           27.030          5.309 
     60       H           27.428          4.762 
     61       H           27.753          3.938 
     62       H           27.792         18.466 
     63       H           24.783         10.599 
     64       H           25.156          5.192 
     65       H           25.081          4.127 
     66       H           27.558          9.393 
     67       H           28.071          9.728 
     68       H           27.943          6.787 
     69       H           27.418          7.664 
     70       H           28.053          8.808 
     71       H           28.028          8.431 
     72       H           27.791          9.120 
     73       H           27.352          9.323 
     74       H           27.805          6.284 
     75       H           30.336         13.643 
     76       H           28.790         25.180 
     77       H           30.594         14.756 
     78       H           26.326         15.301 
     79       H           27.784          5.373 
     80       H           28.201          9.680 
     81       H           26.883          5.582 


NMR shielding tensor and spin rotation calculation done in   3.8 sec 

Maximum memory used throughout the entire PROP-calculation: 366.7 MB
--------------------------------------------------------------------------
WARNING: There was an error initializing an OpenFabrics device.

  Local host:   c01b01n04
  Local device: mlx5_0
--------------------------------------------------------------------------
--------------------------------------------------------------------------
WARNING: There is at least one non-excluded one OpenFabrics device found,
but there are no active ports detected (or Open MPI was unable to use
them).  This is most certainly not what you wanted.  Check your
cables, subnet manager configuration, etc.  The openib BTL will be
ignored for this job.

  Local host: c01b01n04
--------------------------------------------------------------------------
[c01b01n04:2226619] 48 more processes have sent help message help-mpi-btl-openib.txt / error in device init
[c01b01n04:2226619] Set MCA parameter "orte_base_help_aggregate" to 0 to see all help / error messages
[c01b01n04:2226619] 10 more processes have sent help message help-mpi-btl-openib.txt / no active ports found

--------------------------------
SUGGESTED CITATIONS FOR THIS RUN
--------------------------------

Below you find a list of papers that are relevant to this ORCA run
We neither can nor want to force you to cite these papers, but we appreciate if you do
You receive ORCA, which is the product of decades of hard work by many enthusiastic individuals, for free
The only thing we kindly ask in return is that you cite our papers,
We deeply appreciate it, if you show your appreciation for ORCA by not just citing the generic ORCA reference.

Please note that relegating all ORCA citations to the supporting information does *not* help us.
SI sections are not indexed - citations you put there will not count into any citation statistics
But we need these citations in order to attract the funding resources that allow us to do what we are doing

Therefore, if you are a happy ORCA user, please consider citing a few of the papers listed below in the main body of your paper

In addition to the list printed below, the program has created the file nmr-conf-5.bibtex that contains the list in bibtex format
You can import this file easily into all common literature databanks and citation aid programs


List of essential papers. We consider these as the minimum necessary citations

  1. Neese, F.
     Software update: the ORCA program system, version 6.0
     WIRES Comput. Molec. Sci. 2025 15(1), e70019
     doi.org/10.1002/wcms.7019

List of papers to cite with high priority. The work reported in these papers was absolutely
necessary for this run to complete.
Our perspective: the developers of density functionals and basis sets usually get cited in chemistry papers
Good! But without the algorithms to do something with them, the functionals or basis sets would not do anything.
Hence, in our opinion, the algorithm design and method developments papers are equally worthy of getting cited

  1. Neese, F.
     An improvement of the resolution of the identity approximation for the formation of the Coulomb matrix
     J. Comp. Chem. 2003 24(14), 1740-1747
     doi.org/10.1002/jcc.10318
  2. Stoychev, G.L.; Auer, A.A.; Neese, F.
     Automatic Generation of Auxiliary Basis Sets
     J. Theo. Comp. Chem. 2017 13 , 554-562
     doi.org/10.1021/acs.jctc.6b01041
  3. Stoychev, G.L.; Auer, A.A.; Izsak, R.; Neese, F.
     Self-Consistent Field Calculation of Nuclear Magnetic Resonance Chemical Shielding Constants Using Gauge-Including Atomic Orbitals and Approximate Two-Electron Integrals
     J. Chem. Theory Comput. 2018 14(2), 619-637
     doi.org/10.1021/acs.jctc.7b01006
  4. Garcia-Rates, M.; Neese, F.
     Effect of the Solute Cavity on the Solvation Energy and its Derivatives within the Framework of the Gaussian Charge Scheme
     J. Comput. Chem. 2020 41 , 922-939
     doi.org/10.1002/jcc.26139
  5. Neese, F.
     The SHARK Integral Generation and Digestion System
     J. Comp. Chem. 2022 44(3), 381
     doi.org/10.1002/jcc.26942

List of suggested additional citations. These are papers that are important in the 'surrounding' of 
of this run, or papers that preceded the highly important papers. If you like your results we are grateful for a citation.

  1. Neese, F.
     The ORCA program system
     WIRES Comput. Molec. Sci. 2012 2(1), 73-78
     doi.org/10.1002/wcms.81
  2. Neese, F.
     Software update: the ORCA program system, version 4.0
     WIRES Comput. Molec. Sci. 2018 8(1), 1-6
     doi.org/10.1002/wcms.1327
  3. Neese, F.; Wennmohs, F.; Becker, U.; Riplinger, C.
     The ORCA quantum chemistry program package
     J. Chem. Phys. 2020 152(22), 224108
     doi.org/10.1063/5.0004608
  4. Neese, F.
     Software update: The ORCA program system—Version 5.0
     WIRES Comput. Molec. Sci. 2022 12(1), e1606
     doi.org/10.1002/wcms.1606

List of optional additional citations

  1. Neese, F.
     Approximate second-order SCF convergence for spin unrestricted wavefunctions
     Chem. Phys. Lett. 2000 325(1-3), 93-98
     doi.org/10.1016/s0009-2614(00)00662-x

Timings for individual modules:

Sum of individual times          ...      249.148 sec (=   4.152 min)
Startup calculation              ...       81.883 sec (=   1.365 min)  32.9 %
SCF iterations                   ...       97.621 sec (=   1.627 min)  39.2 %
Property integrals               ...       50.857 sec (=   0.848 min)  20.4 %
SCF Response                     ...       10.341 sec (=   0.172 min)   4.2 %
Property calculations            ...        8.446 sec (=   0.141 min)   3.4 %
                             ****ORCA TERMINATED NORMALLY****
TOTAL RUN TIME: 0 days 0 hours 4 minutes 36 seconds 918 msec
