
                                 *****************
                                 * O   R   C   A *
                                 *****************

                                            #,                                       
                                            ###                                      
                                            ####                                     
                                            #####                                    
                                            ######                                   
                                           ########,                                 
                                     ,,################,,,,,                         
                               ,,#################################,,                 
                          ,,##########################################,,             
                       ,#########################################, ''#####,          
                    ,#############################################,,   '####,        
                  ,##################################################,,,,####,       
                ,###########''''           ''''###############################       
              ,#####''   ,,,,##########,,,,          '''####'''          '####       
            ,##' ,,,,###########################,,,                        '##       
           ' ,,###''''                  '''############,,,                           
         ,,##''                                '''############,,,,        ,,,,,,###''
      ,#''                                            '''#######################'''  
     '                                                          ''''####''''         
             ,#######,   #######,   ,#######,      ##                                
            ,#'     '#,  ##    ##  ,#'     '#,    #''#        ,####,    ,#,          
            ##       ##  ##   ,#'  ##            #'  '#       #'       ,# #          
            ##       ##  #######   ##           ,######,      #####,      #          
            '#,     ,#'  ##    ##  '#,     ,#' ,#      #,     #,   #      #          
             '#######'   ##     ##  '#######'  #'      '#     '####' #    #          



                #########################################################
                #                        -***-                          #
                #          Department of theory and spectroscopy        #
                #                                                       #
                #                      Frank Neese                      #
                #                                                       #
                #     Directorship, Architecture, Infrastructure        #
                #                    SHARK, DRIVERS                     #
                #        Core code/Algorithms in most modules           #
                #                                                       #
                #        Max Planck Institute fuer Kohlenforschung      #
                #                Kaiser Wilhelm Platz 1                 #
                #                 D-45470 Muelheim/Ruhr                 #
                #                      Germany                          #
                #                                                       #
                #                  All rights reserved                  #
                #                        -***-                          #
                #########################################################


                         Program Version 6.1.0-f.0  -   RELEASE   -


 With contributions from (in alphabetic order):
[Max-Planck-Institut fuer Kohlenforschung]                               
  Daniel Aravena         : Magnetic Suceptibility                        
  Michael Atanasov       : Ab Initio Ligand Field Theory (pilot matlab implementation)
  Alexander A. Auer      : GIAO ZORA, VPT2 properties, NMR spectrum      
  Ute Becker             : All parallelization in ORCA, NUMFREQ, NUMCALC 
  Giovanni Bistoni       : ED, misc. LED, open-shell LED, HFLD           
  Dmytro Bykov           : pre 5.0 version of the SCF Hessian            
  Marcos Casanova-Páez   : Triplet and SCS-CIS(D). UHF-(DLPNO)-IP/EA/STEOM-CCSD. UHF-CVS-IP/STEOM-CCSD   
  Vijay G. Chilkuri      : MRCI spin determinant printing, contributions to CSF-ICE 
  Pauline Colinet        : FMM embedding                                 
  Dipayan Datta          : RHF DLPNO-CCSD density                        
  Achintya Kumar Dutta   : EOM-CC, STEOM-CC                              
  Nicolas Foglia         : Exact transition moments, OPA infrastructure, MCD improvements    
  Dmitry Ganyushin       : Spin-Orbit,Spin-Spin,Magnetic field MRCI      
  Miquel Garcia-Rates    : C-PCM and meta-GGA Hessian, CCSD/C-PCM, Gaussian charge scheme 
  Tiago L. C. Gouveia    : GS-ROHF, GS-ROCIS                             
  Yang Guo               : DLPNO-NEVPT2, F12-NEVPT2, CIM, IAO-localization        
  Andreas Hansen         : Spin unrestricted coupled pair/coupled cluster methods 
  Ingolf Harden          : AUTO-CI MPn and infrastructure                
  Benjamin Helmich-Paris : MC-RPA, TRAH-(SCF,CASSCF), AVAS, COSX integrals, SCF dyn. polar., MC-PDFT, srDFT 
  Lee Huntington         : MR-EOM, pCC                                   
  Robert Izsak           : Overlap fitted RIJCOSX, COSX-SCS-MP3, EOM     
  Riya Kayal             : Wick's Theorem for AUTO-CI, AUTO-CI UHF-CCSDT 
  Emily Kempfer          : AUTO-CI RHF CISDT and CCSDT, approximate NEVPT4
  Christian Kollmar      : KDIIS, OOCD, Brueckner-CCSD(T), CCSD density, CASPT2, CASPT2-K, improved NEVPT2 
  Axel Koslowski         : Symmetry handling                             
  Simone Kossmann        : meta-GGA functionals, TD-DFT gradient, OOMP2, (MP2 Hessian; deprecated post 5.0) 
  Lucas Lang             : DCDCAS, Hyperfine gauge corrections, ICE-SOC+SSC
  Marvin Lechner         : AUTO-CI (C++ implementation), FIC-MRCC        
  Spencer Leger          : CASSCF response                               
  Dagmar Lenk            : GEPOL surface, SMD, ORCA-2-JSON               
  Dimitrios Liakos       : Extrapolation schemes; Compound Job, Property file
  Dimitrios Manganas     : Further ROCIS development; embedding schemes. LFT, Crystal Embedding 
  Dimitrios Pantazis     : SARC Basis sets                               
  Anastasios Papadopoulos: AUTO-CI, single reference methods and gradients 
  Taras Petrenko         : pre 6.0 DFT Hessian and TD-DFT gradient,  ECA, NRVS 
  Petra Pikulova         : Analytic Raman intensities                    
  Peter Pinski           : DLPNO-MP2, DLPNO-MP2 Gradient                 
  Shashank Vittal Rao    : ES-AILFT, MagRelax                            
  Christoph Reimann      : Effective Core Potentials                     
  Marius Retegan         : Local ZFS, SOC                                
  Christoph Riplinger    : Optimizer, TS searches, QM/MM, DLPNO-CCSD(T), (RO)-DLPNO pert. Triples 
  Michael Roemelt        : Original ROCIS implementation, recursive CI coupling coefficients
  Masaaki Saitow         : Open-shell DLPNO-CCSD energy and density      
  Barbara Sandhoefer     : DKH picture change effects                    
  Yorick L. A. Schmerwitz: GMF and freeze-and-release deltaSCF, NEB S-IDPP initial path                    
  Kantharuban Sivalingam : CASSCF convergence/infrastructure, NEVPT2, NEVPT3, NEVPT4(SD), FIC-MRCI and CEPA variants
  Bernardo de Souza      : ESD, SOC TD-DFT                               
  Georgi L. Stoychev     : AutoAux, RI-MP2 NMR, DLPNO-MP2 response, X2C  
  Van Anh Tran           : RI-MP2 g-tensors                              
  Willem Van den Heuvel  : Paramagnetic NMR                              
  Zikuan Wang            : NOTCH, Electric field optimization            
  Frank Wennmohs         : Technical directorship and infrastructure     
  Hang Xu                : AUTO-CI-Response properties                   
                                                                         
[FACCTs GmbH]                                                            
  Markus Bursch, Nicolas Foglia, Miquel Garcia-Rates, Ingolf Harden, Hagen Neugebauer, Anastasios Papadopoulos, 
  Christoph Riplinger, Bernardo de Souza, Georgi L. Stoychev                                                    
                                                                 
  APM, various basis sets, CI-OPT, improved COSX, DLPNO-Multilevel,           
  DOCKER, DRACO, updates on ESD, Fragmentator, GOAT, IRC, LR-CPCM, L-BFGS, MBIS, meta-GGA TD-DFT gradient, ML-optimized integration grids, 
  MM, NACMEs, nearIR, NEB, NEB-TS, NL-DFT gradient (VV10), 2- and 3-layer-ONIOM, interface openCOSMO-RS, QMMM,   
  Crystal-QMMM, RESP, rigid body optimization, SF, symmetry and pop. for TD-DFT, various functionals, SOLVATOR                                   
                                                                         
[Other institutions]                                                     
  V. Asgeirsson          : NEB                                           
  Christoph Bannwarth    : sTDA-DFT, sTD-DFT, PBEh-3c, B97-3c, D3        
  Giovanni Bistoni       : ETS/NOCV, ADLD/ADEX, COVALED                  
  Martin Brehm           : Molecular dynamics                            
  Ronald Cardenas        : ETS/NOCV                                      
  Martina Colucci        : COVALED                                       
  Sebastian Ehlert       : rSCAN, r2SCAN, r2SCAN-3c, D4, dhf basis sets  
  Marvin Friede          : D4 for Fr, Ra, Ac-Lr                          
  Lars Goerigk           : TD-DFT with DH, B97 family of functionals     
  Stefan Grimme          : VdW corrections, initial TS optimization, DFT functionals, gCP, sTDA/sTD-DF 
  Waldemar Hujo          : DFT-NL                                        
  H. Jonsson             : NEB                                           
  Holger Kruse           : gCP                                           
  Marcel Mueller         : wB97X-3c, vDZP basis set                      
  Hagen Neugebauer       : wr2SCAN, Native XTB                           
  Gianluca Regni         : ADLD/ADEX                                     
  Tobias Risthaus        : pre 6.0 range-separated hybrid DFT and stability analysis
  Lukas Wittmann         : regularized MP2, r2SCAN double-hybrids, wr2SCAN        
                                                                         
We gratefully acknowledge several colleagues who have allowed us to      
interface, adapt or use parts of their codes:                            
  Ed Valeev, F. Pavosevic, A. Kumar             : LibInt (2-el integral package), F12 methods 
  Garnet Chan, S. Sharma, J. Yang, R. Olivares  : DMRG                   
  Ulf Ekstrom                                   : XCFun DFT Library      
  Mihaly Kallay                                 : mrcc  (arbitrary order and MRCC methods)
  Frank Weinhold                                : gennbo (NPA and NBO analysis)           
  Simon Mueller                                 : openCOSMO-RS                            
  Christopher J. Cramer and Donald G. Truhlar   : smd solvation model                     
  S Lehtola, MJT Oliveira, MAL Marques          : LibXC Library                           
  Liviu Ungur et al                             : ANISO software                          


 Your calculation uses the libint2 library for the computation of 2-el integrals
 For citations please refer to: http://libint.valeyev.net

 Your ORCA version has been built with support for libXC version: 7.0.0
 For citations please refer to: https://libxc.gitlab.io

 This ORCA versions uses:
   CBLAS   interface :  Fast vector & matrix operations
   LAPACKE interface :  Fast linear algebra routines
   SCALAPACK package :  Parallel linear algebra routines
   Shared memory     :  Shared parallel matrices
   BLAS/LAPACK       :  OpenBLAS 0.3.29  USE64BITINT DYNAMIC_ARCH NO_AFFINITY Cooperlake SINGLE_THREADED
        Core in use  :  Cooperlake
   Copyright (c) 2011-2014, The OpenBLAS Project


  ***********************************
  * Starting time: Wed Mar  4 13:44:39 2026
  * Host name:     c02b01n02
  * Process ID:    2071165
  * Working dir.:  /lustre1/jiangy/jiangy_liuxy/NMR/B9D7C2-SRSR-NMR/opt_conf
  ***********************************

NOTE: MaxCore=5000 MB was set to SCF,MP2,MDCI,CIPSI,MRCI,RASCI and CIS
      => If you want to overwrite this, your respective input block should be placed after the MaxCore statement


***************************************
The coordinates will be read from file: opt-conf-12.xyz
***************************************



Warning: The global flag for NMR shieldings has been found
         but shieldings for certain elements have also been explicitly requested in the EPRNMR block
         ==>> only the requested shieldings will be calculated

================================================================================

----- Orbital basis set information -----
Your calculation utilizes the basis: pcSseg-2
   F. Jensen, J. Chem. Theory Comput. 11, 132 (2015).

----- AuxJ basis set information -----
Your calculation utilizes the AutoAux generation procedure.
  G. L. Stoychev, A. A. Auer, F. Neese, J. Chem. Theory Comput. 13, 554 (2017)

----- AuxC basis set information -----
Your calculation utilizes the AutoAux generation procedure.
  G. L. Stoychev, A. A. Auer, F. Neese, J. Chem. Theory Comput. 13, 554 (2017)

----- AuxJK basis set information -----
Your calculation utilizes the AutoAux generation procedure.
  G. L. Stoychev, A. A. Auer, F. Neese, J. Chem. Theory Comput. 13, 554 (2017)

----- AuxX basis set information -----
Your calculation utilizes the AutoAux generation procedure.
  G. L. Stoychev, A. A. Auer, F. Neese, J. Chem. Theory Comput. 13, 554 (2017)

================================================================================
                                        WARNINGS
                       Please study these warnings very carefully!
================================================================================


================================================================================
                                       INPUT FILE
================================================================================
NAME = nmr-conf-12.inp
|  1> !TPSS PCSSEG-2 AUTOAUX NMR CPCM(Methanol)
|  2> 
|  3> %pal nprocs 60 end
|  4> %maxcore 5000
|  5> 
|  6> *XYZFILE 0 1 opt-conf-12.xyz
|  7> 
|  8> %EPRNMR
|  9>    NUCLEI = ALL C {SHIFT}
| 10>    NUCLEI = ALL H {SHIFT}
| 11>    TAU DOBSON
| 12> END
| 13> 
| 14> 
| 15>                          ****END OF INPUT****
================================================================================

                       ****************************
                       * Single Point Calculation *
                       ****************************

---------------------------------
CARTESIAN COORDINATES (ANGSTROEM)
---------------------------------
  C     21.045617  -29.980133    1.929461
  C     21.605071  -29.672658    0.686470
  C     20.874961  -29.935506   -0.476950
  C     19.618162  -30.529289   -0.394686
  C     19.061395  -30.828341    0.846684
  C     19.772764  -30.542899    2.007524
  C     17.707565  -31.487444    0.909098
  C     17.762485  -33.009792    0.649368
  C     16.417158  -33.595891    0.177482
  C     16.107123  -33.244922   -1.288305
  C     17.150231  -33.703019   -2.276824
  C     17.534707  -35.049308   -2.328185
  C     18.485699  -35.479307   -3.239332
  C     19.061018  -34.568619   -4.139893
  C     18.694633  -33.237894   -4.088798
  C     17.748468  -32.809586   -3.156732
  C     18.315107  -33.741856    1.873670
  C     15.248931  -33.206325    1.083126
  O     21.475927  -29.583592   -1.645261
  O     21.826558  -29.709243    3.009490
  O     22.817760  -29.031711    0.656309
  O     19.981900  -34.995553   -5.054628
  O     18.947697  -36.758740   -3.361518
  C     23.976493  -29.643030    0.050044
  C     24.361475  -30.959050    0.754237
  C     23.394754  -32.091805    0.504752
  C     25.048221  -28.571958    0.163763
  O     25.349947  -28.237888    1.516574
  C     23.095134  -32.485071   -0.804531
  C     22.224308  -33.535228   -1.039426
  C     21.639234  -34.208575    0.042996
  C     21.947245  -33.838182    1.337725
  C     22.825713  -32.781762    1.565353
  C     21.335847  -30.065580    4.298814
  C     20.766974  -29.815723   -2.860096
  C     18.466331  -37.741279   -2.445750
  O     25.698099  -31.336943    0.381642
  O     18.539677  -35.133770    1.645025
  O     14.058201  -33.952487    0.802904
  O     21.849293  -33.997949   -2.263330
  O     20.763200  -35.236486   -0.186860
  C     22.501085  -33.463577   -3.416292
  H     19.061263  -30.755877   -1.291851
  H     19.336873  -30.777140    2.967215
  H     17.059195  -31.024703    0.162864
  H     17.250893  -31.297710    1.884080
  H     18.478239  -33.172979   -0.161874
  H     16.515835  -34.684008    0.247487
  H     15.977160  -32.164102   -1.388373
  H     15.142481  -33.693902   -1.540838
  H     17.085852  -35.758097   -1.647036
  H     19.154215  -32.539024   -4.776498
  H     17.475849  -31.761844   -3.123169
  H     17.613195  -33.680913    2.708126
  H     19.243256  -33.258664    2.191529
  H     15.523985  -33.330828    2.135104
  H     14.975053  -32.160378    0.933643
  H     20.123568  -35.945296   -4.923888
  H     23.785868  -29.827584   -1.009684
  H     24.410202  -30.764010    1.824688
  H     24.706090  -27.687135   -0.384123
  H     25.971556  -28.925656   -0.289004
  H     24.521137  -27.977290    1.939839
  H     23.529235  -31.959140   -1.643055
  H     21.495326  -34.374654    2.161951
  H     23.050852  -32.484878    2.581538
  H     21.142313  -31.139103    4.363468
  H     22.120680  -29.793286    5.000509
  H     20.422612  -29.516434    4.541383
  H     20.541616  -30.875695   -2.990584
  H     19.836666  -29.242950   -2.887217
  H     21.426189  -29.481704   -3.657556
  H     18.698350  -37.458503   -1.416268
  H     17.387999  -37.879264   -2.553057
  H     18.981213  -38.664489   -2.699008
  H     25.683313  -31.683877   -0.519969
  H     19.234538  -35.220514    0.971550
  H     14.248130  -34.887086    0.954254
  H     20.656629  -35.347135   -1.144673
  H     22.078862  -33.991868   -4.265140
  H     22.305731  -32.394541   -3.514464
  H     23.578681  -33.634280   -3.359552

----------------------------
CARTESIAN COORDINATES (A.U.)
----------------------------
  NO LB      ZA    FRAG     MASS         X           Y           Z
   0 C     6.0000    0    12.011   39.770452  -56.654242    3.646153
   1 C     6.0000    0    12.011   40.827666  -56.073197    1.297240
   2 C     6.0000    0    12.011   39.447960  -56.569909   -0.901305
   3 C     6.0000    0    12.011   37.072953  -57.691995   -0.745848
   4 C     6.0000    0    12.011   36.020817  -58.257121    1.600001
   5 C     6.0000    0    12.011   37.365108  -57.717714    3.793670
   6 C     6.0000    0    12.011   33.462449  -59.502646    1.717946
   7 C     6.0000    0    12.011   33.566233  -62.379467    1.227128
   8 C     6.0000    0    12.011   31.023933  -63.487033    0.335392
   9 C     6.0000    0    12.011   30.438051  -62.823797   -2.434543
  10 C     6.0000    0    12.011   32.409239  -63.689476   -4.302575
  11 C     6.0000    0    12.011   33.135794  -66.233594   -4.399632
  12 C     6.0000    0    12.011   34.932909  -67.046173   -6.121450
  13 C     6.0000    0    12.011   36.020103  -65.325223   -7.823264
  14 C     6.0000    0    12.011   35.327736  -62.810516   -7.726709
  15 C     6.0000    0    12.011   33.539744  -62.001133   -5.965360
  16 C     6.0000    0    12.011   34.610537  -63.762866    3.540723
  17 C     6.0000    0    12.011   28.816304  -62.750859    2.046812
  18 O     8.0000    0    15.999   40.583621  -55.904888   -3.109092
  19 O     8.0000    0    15.999   41.246217  -56.142332    5.687112
  20 O     8.0000    0    15.999   43.119318  -54.861983    1.240243
  21 O     8.0000    0    15.999   37.760319  -66.132011   -9.551863
  22 O     8.0000    0    15.999   35.805958  -69.463952   -6.352348
  23 C     6.0000    0    12.011   45.309006  -56.017208    0.094570
  24 C     6.0000    0    12.011   46.036516  -58.504125    1.425302
  25 C     6.0000    0    12.011   44.209679  -60.644723    0.953843
  26 C     6.0000    0    12.011   47.334277  -53.993176    0.309467
  27 O     8.0000    0    15.999   47.904458  -53.361874    2.865910
  28 C     6.0000    0    12.011   43.643478  -61.387887   -1.520343
  29 C     6.0000    0    12.011   41.997856  -63.372396   -1.964230
  30 C     6.0000    0    12.011   40.892226  -64.644838    0.081251
  31 C     6.0000    0    12.011   41.474282  -63.944897    2.527935
  32 C     6.0000    0    12.011   43.134346  -61.948553    2.958089
  33 C     6.0000    0    12.011   40.318907  -56.815711    8.123580
  34 C     6.0000    0    12.011   39.243893  -56.343551   -5.404798
  35 C     6.0000    0    12.011   34.896309  -71.320681   -4.621798
  36 O     8.0000    0    15.999   48.562369  -59.218240    0.721198
  37 O     8.0000    0    15.999   35.034913  -66.393204    3.108647
  38 O     8.0000    0    15.999   26.566150  -64.160902    1.517268
  39 O     8.0000    0    15.999   41.289180  -64.246813   -4.277075
  40 O     8.0000    0    15.999   39.236761  -66.587308   -0.353114
  41 C     6.0000    0    12.011   42.520888  -63.236997   -6.455856
  42 H     1.0000    0     1.008   36.020568  -58.120184   -2.441244
  43 H     1.0000    0     1.008   36.541395  -58.160365    5.607223
  44 H     1.0000    0     1.008   32.237207  -58.628193    0.307768
  45 H     1.0000    0     1.008   32.599463  -59.144101    3.560395
  46 H     1.0000    0     1.008   34.918811  -62.687846   -0.305898
  47 H     1.0000    0     1.008   31.210405  -65.543277    0.467682
  48 H     1.0000    0     1.008   30.192457  -60.781344   -2.623645
  49 H     1.0000    0     1.008   28.615142  -63.672248   -2.911763
  50 H     1.0000    0     1.008   32.287581  -67.573011   -3.112446
  51 H     1.0000    0     1.008   36.196221  -61.489843   -9.026272
  52 H     1.0000    0     1.008   33.024569  -60.021186   -5.901935
  53 H     1.0000    0     1.008   33.284115  -63.647702    5.117617
  54 H     1.0000    0     1.008   36.364483  -62.849767    4.141390
  55 H     1.0000    0     1.008   29.336080  -62.986136    4.034761
  56 H     1.0000    0     1.008   28.298749  -60.774307    1.764329
  57 H     1.0000    0     1.008   38.028032  -67.926766   -9.304799
  58 H     1.0000    0     1.008   44.948776  -56.365966   -1.908027
  59 H     1.0000    0     1.008   46.128596  -58.135554    3.448161
  60 H     1.0000    0     1.008   46.687744  -52.321103   -0.725887
  61 H     1.0000    0     1.008   49.079128  -54.661567   -0.546138
  62 H     1.0000    0     1.008   46.338233  -52.869416    3.665764
  63 H     1.0000    0     1.008   44.463810  -60.394022   -3.104924
  64 H     1.0000    0     1.008   40.620280  -64.958682    4.085496
  65 H     1.0000    0     1.008   43.559797  -61.387524    4.878399
  66 H     1.0000    0     1.008   39.953182  -58.844377    8.245760
  67 H     1.0000    0     1.008   41.802026  -56.301152    9.449593
  68 H     1.0000    0     1.008   38.593144  -55.777977    8.581970
  69 H     1.0000    0     1.008   38.818029  -58.346609   -5.651386
  70 H     1.0000    0     1.008   37.485867  -55.261166   -5.456049
  71 H     1.0000    0     1.008   40.489629  -55.712346   -6.911779
  72 H     1.0000    0     1.008   35.334761  -70.786311   -2.676358
  73 H     1.0000    0     1.008   32.858555  -71.581435   -4.824579
  74 H     1.0000    0     1.008   35.869294  -73.065295   -5.100386
  75 H     1.0000    0     1.008   48.534428  -59.873851   -0.982598
  76 H     1.0000    0     1.008   36.348009  -66.557126    1.835963
  77 H     1.0000    0     1.008   26.925064  -65.927038    1.803279
  78 H     1.0000    0     1.008   39.035372  -66.796404   -2.163118
  79 H     1.0000    0     1.008   41.723002  -64.235321   -8.059946
  80 H     1.0000    0     1.008   42.151723  -61.216811   -6.641375
  81 H     1.0000    0     1.008   44.557250  -63.559578   -6.348634

--------------------------------
INTERNAL COORDINATES (ANGSTROEM)
--------------------------------
 C      0   0   0     0.000000000000     0.00000000     0.00000000
 C      1   0   0     1.397339284255     0.00000000     0.00000000
 C      2   1   0     1.398461308143   119.31762835     0.00000000
 C      3   2   1     1.392440497940   120.14725592   358.35838956
 C      4   3   2     1.392989191243   120.32827458     1.96759114
 C      5   4   3     1.391068382047   119.68406803   359.37520157
 C      5   4   3     1.507039867023   119.33117657   180.79924300
 C      7   5   4     1.545322113012   113.07653364    79.62077247
 C      8   7   5     1.541457976483   113.26634596   202.14524348
 C      9   8   7     1.538775840971   112.37906161    74.84083754
 C     10   9   8     1.508343035649   114.56176157    57.99576681
 C     11  10   9     1.401054947136   120.37378325    55.03148032
 C     12  11  10     1.385451034800   120.71104909   179.57206032
 C     13  12  11     1.404049040591   120.11748522   358.96674163
 C     14  13  12     1.381187464130   119.50469843     1.50437954
 C     11  10   9     1.389369531804   121.16650465   234.84837631
 C      8   7   5     1.529778561870   110.47224671    75.26808181
 C      9   8   7     1.528629869292   112.87522968   308.88425207
 O      3   2   1     1.360129893863   115.80390187   178.71952071
 O      1   2   3     1.360041583963   115.63746979   179.21241398
 O      2   1   3     1.371983632689   118.44002341   175.35388820
 O     14  13  12     1.366395951117   120.19084758   181.14239575
 O     13  12  11     1.365767323659   125.57558566   178.93161853
 C     21   2   1     1.443582038331   121.39152253   118.11373950
 C     24  21   2     1.541430247223   111.72544556   298.71092842
 C     25  24  21     1.509942452652   113.89777424    70.98116228
 C     24  21   2     1.519449437761   103.66352762   176.66867108
 O     27  24  21     1.425741999043   112.67181645    62.14737663
 C     26  25  24     1.399518051707   120.16212805    55.78451622
 C     29  26  25     1.384320410777   120.43673726   179.07941018
 C     30  29  26     1.402620846826   119.71161828     0.00000000
 C     31  30  29     1.381443181169   120.10283996   359.00156353
 C     26  25  24     1.387344604148   120.62244977   233.76545687
 C     20   1   2     1.424826065568   118.10080117   183.16311230
 C     19   3   2     1.425596146073   118.04200017   180.72949383
 C     23  13  12     1.426788475249   118.26567952   357.12431903
 O     25  24  21     1.438121667373   109.76178226   195.86461603
 O     17   8   7     1.428333472555   113.26750376   186.93812774
 O     18   9   8     1.432871634329   112.73741762   191.43049486
 O     30  29  26     1.361135583806   125.71705899   179.37855965
 O     31  30  29     1.369989049169   119.83132630   179.12434535
 C     40  30  29     1.428182649280   118.22686364     6.97918226
 H      4   3   2     1.079991941000   120.38511252   181.48784406
 H      6   5   4     1.079757319758   119.38955937   180.03002925
 H      7   5   4     1.091502286195   108.65680260   318.59709605
 H      7   5   4     1.093223914398   109.65124309   202.27882645
 H      8   7   5     1.094096913034   107.14600210   319.52498814
 H      9   8   7     1.094823036368   106.23978694   192.50787663
 H     10   9   8     1.093194746851   109.67291255   295.31515602
 H     10   9   8     1.093567766810   107.70150490   180.09198097
 H     12  11  10     1.080655709088   119.54866871   359.38543536
 H     15  14  13     1.082850784784   119.06095838   179.05875875
 H     16  11  10     1.083149099344   119.60588659     1.08153593
 H     17   8   7     1.092113597599   110.64769984    67.91807281
 H     17   8   7     1.093603129040   109.13328385   309.97191297
 H     18   9   8     1.094445789218   110.39008476   314.54204039
 H     18   9   8     1.091493680059   110.78330747    73.72740975
 H     22  14  13     0.969110566483   108.32544106   359.00757896
 H     24  21   2     1.092439079208   109.80831077    61.08267973
 H     25  24  21     1.089164369652   107.89551622   309.84642042
 H     27  24  21     1.095510389702   108.15757293   299.61607321
 H     27  24  21     1.087495894871   109.78198829   181.22839168
 H     28  27  24     0.966432185070   107.29274120   304.31115893
 H     29  26  25     1.080819011934   120.20387803   358.00759110
 H     32  31  30     1.082303690222   119.19248988   180.64207572
 H     33  26  25     1.082338981489   119.73720250     2.03237344
 H     34  20   1     1.092743694023   111.11426927    59.30508879
 H     34  20   1     1.087420495088   105.82656052   178.21544084
 H     34  20   1     1.092885180268   111.28261032   297.10032467
 H     35  19   3     1.091491921476   111.26498747   299.92352399
 H     35  19   3     1.092829737267   111.04807212    61.89424239
 H     35  19   3     1.087233227280   105.87191555   180.88991247
 H     36  23  13     1.092533436076   110.78806219   300.91121274
 H     36  23  13     1.092408325716   110.91395694    62.81805354
 H     36  23  13     1.086995570642   105.99341276   181.84851520
 H     37  25  24     0.966169313236   108.77819476   285.11958949
 H     38  17   8     0.971557916699   108.08450187    64.47487380
 H     39  18   9     0.965637299564   108.05354199    61.09164623
 H     41  31  30     0.970054851507   108.75339310   359.01551229
 H     42  40  30     1.085313669834   105.76704401   177.99621848
 H     42  40  30     1.091164228688   110.94676090   296.87109929
 H     42  40  30     1.092507558944   110.47264957    58.54275883

---------------------------
INTERNAL COORDINATES (A.U.)
---------------------------
 C      0   0   0     0.000000000000     0.00000000     0.00000000
 C      1   0   0     2.640588563411     0.00000000     0.00000000
 C      2   1   0     2.642708881275   119.31762835     0.00000000
 C      3   2   1     2.631331198888   120.14725592   358.35838956
 C      4   3   2     2.632368078962   120.32827458     1.96759114
 C      5   4   3     2.628738275626   119.68406803   359.37520157
 C      5   4   3     2.847892621574   119.33117657   180.79924300
 C      7   5   4     2.920235582285   113.07653364    79.62077247
 C      8   7   5     2.912933422502   113.26634596   202.14524348
 C      9   8   7     2.907864920929   112.37906161    74.84083754
 C     10   9   8     2.850355253384   114.56176157    57.99576681
 C     11  10   9     2.647610148663   120.37378325    55.03148032
 C     12  11  10     2.618123027730   120.71104909   179.57206032
 C     13  12  11     2.653268165312   120.11748522   358.96674163
 C     14  13  12     2.610066046811   119.50469843     1.50437954
 C     11  10   9     2.625527913925   121.16650465   234.84837631
 C      8   7   5     2.890862527479   110.47224671    75.26808181
 C      9   8   7     2.888691813093   112.87522968   308.88425207
 O      3   2   1     2.570273005960   115.80390187   178.71952071
 O      1   2   3     2.570106124435   115.63746979   179.21241398
 O      2   1   3     2.592673326005   118.44002341   175.35388820
 O     14  13  12     2.582114138110   120.19084758   181.14239575
 O     13  12  11     2.580926204373   125.57558566   178.93161853
 C     21   2   1     2.727974704294   121.39152253   118.11373950
 C     24  21   2     2.912881021794   111.72544556   298.71092842
 C     25  24  21     2.853377713494   113.89777424    70.98116228
 C     24  21   2     2.871343311709   103.66352762   176.66867108
 O     27  24  21     2.694261915821   112.67181645    62.14737663
 C     26  25  24     2.644705837205   120.16212805    55.78451622
 C     29  26  25     2.615986457966   120.43673726   179.07941018
 C     30  29  26     2.650569270229   119.71161828     0.00000000
 C     31  30  29     2.610549281982   120.10283996   359.00156353
 C     26  25  24     2.621701355214   120.62244977   233.76545687
 C     20   1   2     2.692531052396   118.10080117   183.16311230
 C     19   3   2     2.693986293652   118.04200017   180.72949383
 C     23  13  12     2.696239469255   118.26567952   357.12431903
 O     25  24  21     2.717656098594   109.76178226   195.86461603
 O     17   8   7     2.699159091042   113.26750376   186.93812774
 O     18   9   8     2.707734973945   112.73741762   191.43049486
 O     30  29  26     2.572173484528   125.71705899   179.37855965
 O     31  30  29     2.588904109400   119.83132630   179.12434535
 C     40  30  29     2.698874076358   118.22686364     6.97918226
 H      4   3   2     2.040888995332   120.38511252   181.48784406
 H      6   5   4     2.040445625439   119.38955937   180.03002925
 H      7   5   4     2.062640395457   108.65680260   318.59709605
 H      7   5   4     2.065893801266   109.65124309   202.27882645
 H      8   7   5     2.067543529602   107.14600210   319.52498814
 H      9   8   7     2.068915703843   106.23978694   192.50787663
 H     10   9   8     2.065838682589   109.67291255   295.31515602
 H     10   9   8     2.066543588155   107.70150490   180.09198097
 H     12  11  10     2.042143335235   119.54866871   359.38543536
 H     15  14  13     2.046291427144   119.06095838   179.05875875
 H     16  11  10     2.046855159963   119.60588659     1.08153593
 H     17   8   7     2.063795606594   110.64769984    67.91807281
 H     17   8   7     2.066610413084   109.13328385   309.97191297
 H     18   9   8     2.068202810045   110.39008476   314.54204039
 H     18   9   8     2.062624132218   110.78330747    73.72740975
 H     22  14  13     1.831353564142   108.32544106   359.00757896
 H     24  21   2     2.064410677697   109.80831077    61.08267973
 H     25  24  21     2.058222373468   107.89551622   309.84642042
 H     27  24  21     2.070214613402   108.15757293   299.61607321
 H     27  24  21     2.055069413071   109.78198829   181.22839168
 H     28  27  24     1.826292156790   107.29274120   304.31115893
 H     29  26  25     2.042451932891   120.20387803   358.00759110
 H     32  31  30     2.045257568251   119.19248988   180.64207572
 H     33  26  25     2.045324259081   119.73720250     2.03237344
 H     34  20   1     2.064986316274   111.11426927    59.30508879
 H     34  20   1     2.054926928130   105.82656052   178.21544084
 H     34  20   1     2.065253686528   111.28261032   297.10032467
 H     35  19   3     2.062620808976   111.26498747   299.92352399
 H     35  19   3     2.065148914439   111.04807212    61.89424239
 H     35  19   3     2.054573043258   105.87191555   180.88991247
 H     36  23  13     2.064588986336   110.78806219   300.91121274
 H     36  23  13     2.064352562019   110.91395694    62.81805354
 H     36  23  13     2.054123937299   105.99341276   181.84851520
 H     37  25  24     1.825795401015   108.77819476   285.11958949
 H     38  17   8     1.835978385805   108.08450187    64.47487380
 H     39  18   9     1.824790040875   108.05354199    61.09164623
 H     41  31  30     1.833138004231   108.75339310   359.01551229
 H     42  40  30     2.050945605387   105.76704401   177.99621848
 H     42  40  30     2.062001559352   110.94676090   296.87109929
 H     42  40  30     2.064540085644   110.47264957    58.54275883

---------------------
BASIS SET INFORMATION
---------------------
There are 3 groups of distinct atoms

 Group   1 Type C   : 11s7p2d1f contracted to 4s5p2d1f pattern {7211/31111/11/1}
 Group   2 Type O   : 11s7p2d1f contracted to 4s5p2d1f pattern {7211/31111/11/1}
 Group   3 Type H   : 6s3p1d contracted to 3s2p1d pattern {411/21/1}

Atom   0C    basis set group =>   1
Atom   1C    basis set group =>   1
Atom   2C    basis set group =>   1
Atom   3C    basis set group =>   1
Atom   4C    basis set group =>   1
Atom   5C    basis set group =>   1
Atom   6C    basis set group =>   1
Atom   7C    basis set group =>   1
Atom   8C    basis set group =>   1
Atom   9C    basis set group =>   1
Atom  10C    basis set group =>   1
Atom  11C    basis set group =>   1
Atom  12C    basis set group =>   1
Atom  13C    basis set group =>   1
Atom  14C    basis set group =>   1
Atom  15C    basis set group =>   1
Atom  16C    basis set group =>   1
Atom  17C    basis set group =>   1
Atom  18O    basis set group =>   2
Atom  19O    basis set group =>   2
Atom  20O    basis set group =>   2
Atom  21O    basis set group =>   2
Atom  22O    basis set group =>   2
Atom  23C    basis set group =>   1
Atom  24C    basis set group =>   1
Atom  25C    basis set group =>   1
Atom  26C    basis set group =>   1
Atom  27O    basis set group =>   2
Atom  28C    basis set group =>   1
Atom  29C    basis set group =>   1
Atom  30C    basis set group =>   1
Atom  31C    basis set group =>   1
Atom  32C    basis set group =>   1
Atom  33C    basis set group =>   1
Atom  34C    basis set group =>   1
Atom  35C    basis set group =>   1
Atom  36O    basis set group =>   2
Atom  37O    basis set group =>   2
Atom  38O    basis set group =>   2
Atom  39O    basis set group =>   2
Atom  40O    basis set group =>   2
Atom  41C    basis set group =>   1
Atom  42H    basis set group =>   3
Atom  43H    basis set group =>   3
Atom  44H    basis set group =>   3
Atom  45H    basis set group =>   3
Atom  46H    basis set group =>   3
Atom  47H    basis set group =>   3
Atom  48H    basis set group =>   3
Atom  49H    basis set group =>   3
Atom  50H    basis set group =>   3
Atom  51H    basis set group =>   3
Atom  52H    basis set group =>   3
Atom  53H    basis set group =>   3
Atom  54H    basis set group =>   3
Atom  55H    basis set group =>   3
Atom  56H    basis set group =>   3
Atom  57H    basis set group =>   3
Atom  58H    basis set group =>   3
Atom  59H    basis set group =>   3
Atom  60H    basis set group =>   3
Atom  61H    basis set group =>   3
Atom  62H    basis set group =>   3
Atom  63H    basis set group =>   3
Atom  64H    basis set group =>   3
Atom  65H    basis set group =>   3
Atom  66H    basis set group =>   3
Atom  67H    basis set group =>   3
Atom  68H    basis set group =>   3
Atom  69H    basis set group =>   3
Atom  70H    basis set group =>   3
Atom  71H    basis set group =>   3
Atom  72H    basis set group =>   3
Atom  73H    basis set group =>   3
Atom  74H    basis set group =>   3
Atom  75H    basis set group =>   3
Atom  76H    basis set group =>   3
Atom  77H    basis set group =>   3
Atom  78H    basis set group =>   3
Atom  79H    basis set group =>   3
Atom  80H    basis set group =>   3
Atom  81H    basis set group =>   3
---------------------------------
AUXILIARY/J BASIS SET INFORMATION
---------------------------------
There are 3 groups of distinct atoms

 Group   1 Type C   : 15s13p12d5f5g contracted to 15s13p12d5f5g pattern {111111111111111/1111111111111/111111111111/11111/11111}
 Group   2 Type O   : 15s13p12d5f5g contracted to 15s13p12d5f5g pattern {111111111111111/1111111111111/111111111111/11111/11111}
 Group   3 Type H   : 12s4p3d2f contracted to 12s4p3d2f pattern {111111111111/1111/111/11}

Atom   0C    basis set group =>   1
Atom   1C    basis set group =>   1
Atom   2C    basis set group =>   1
Atom   3C    basis set group =>   1
Atom   4C    basis set group =>   1
Atom   5C    basis set group =>   1
Atom   6C    basis set group =>   1
Atom   7C    basis set group =>   1
Atom   8C    basis set group =>   1
Atom   9C    basis set group =>   1
Atom  10C    basis set group =>   1
Atom  11C    basis set group =>   1
Atom  12C    basis set group =>   1
Atom  13C    basis set group =>   1
Atom  14C    basis set group =>   1
Atom  15C    basis set group =>   1
Atom  16C    basis set group =>   1
Atom  17C    basis set group =>   1
Atom  18O    basis set group =>   2
Atom  19O    basis set group =>   2
Atom  20O    basis set group =>   2
Atom  21O    basis set group =>   2
Atom  22O    basis set group =>   2
Atom  23C    basis set group =>   1
Atom  24C    basis set group =>   1
Atom  25C    basis set group =>   1
Atom  26C    basis set group =>   1
Atom  27O    basis set group =>   2
Atom  28C    basis set group =>   1
Atom  29C    basis set group =>   1
Atom  30C    basis set group =>   1
Atom  31C    basis set group =>   1
Atom  32C    basis set group =>   1
Atom  33C    basis set group =>   1
Atom  34C    basis set group =>   1
Atom  35C    basis set group =>   1
Atom  36O    basis set group =>   2
Atom  37O    basis set group =>   2
Atom  38O    basis set group =>   2
Atom  39O    basis set group =>   2
Atom  40O    basis set group =>   2
Atom  41C    basis set group =>   1
Atom  42H    basis set group =>   3
Atom  43H    basis set group =>   3
Atom  44H    basis set group =>   3
Atom  45H    basis set group =>   3
Atom  46H    basis set group =>   3
Atom  47H    basis set group =>   3
Atom  48H    basis set group =>   3
Atom  49H    basis set group =>   3
Atom  50H    basis set group =>   3
Atom  51H    basis set group =>   3
Atom  52H    basis set group =>   3
Atom  53H    basis set group =>   3
Atom  54H    basis set group =>   3
Atom  55H    basis set group =>   3
Atom  56H    basis set group =>   3
Atom  57H    basis set group =>   3
Atom  58H    basis set group =>   3
Atom  59H    basis set group =>   3
Atom  60H    basis set group =>   3
Atom  61H    basis set group =>   3
Atom  62H    basis set group =>   3
Atom  63H    basis set group =>   3
Atom  64H    basis set group =>   3
Atom  65H    basis set group =>   3
Atom  66H    basis set group =>   3
Atom  67H    basis set group =>   3
Atom  68H    basis set group =>   3
Atom  69H    basis set group =>   3
Atom  70H    basis set group =>   3
Atom  71H    basis set group =>   3
Atom  72H    basis set group =>   3
Atom  73H    basis set group =>   3
Atom  74H    basis set group =>   3
Atom  75H    basis set group =>   3
Atom  76H    basis set group =>   3
Atom  77H    basis set group =>   3
Atom  78H    basis set group =>   3
Atom  79H    basis set group =>   3
Atom  80H    basis set group =>   3
Atom  81H    basis set group =>   3
---------------------------------
AUXILIARY/C BASIS SET INFORMATION
---------------------------------
There are 3 groups of distinct atoms

 Group   1 Type C   : 15s13p12d5f5g contracted to 15s13p12d5f5g pattern {111111111111111/1111111111111/111111111111/11111/11111}
 Group   2 Type O   : 15s13p12d5f5g contracted to 15s13p12d5f5g pattern {111111111111111/1111111111111/111111111111/11111/11111}
 Group   3 Type H   : 12s4p3d2f contracted to 12s4p3d2f pattern {111111111111/1111/111/11}

Atom   0C    basis set group =>   1
Atom   1C    basis set group =>   1
Atom   2C    basis set group =>   1
Atom   3C    basis set group =>   1
Atom   4C    basis set group =>   1
Atom   5C    basis set group =>   1
Atom   6C    basis set group =>   1
Atom   7C    basis set group =>   1
Atom   8C    basis set group =>   1
Atom   9C    basis set group =>   1
Atom  10C    basis set group =>   1
Atom  11C    basis set group =>   1
Atom  12C    basis set group =>   1
Atom  13C    basis set group =>   1
Atom  14C    basis set group =>   1
Atom  15C    basis set group =>   1
Atom  16C    basis set group =>   1
Atom  17C    basis set group =>   1
Atom  18O    basis set group =>   2
Atom  19O    basis set group =>   2
Atom  20O    basis set group =>   2
Atom  21O    basis set group =>   2
Atom  22O    basis set group =>   2
Atom  23C    basis set group =>   1
Atom  24C    basis set group =>   1
Atom  25C    basis set group =>   1
Atom  26C    basis set group =>   1
Atom  27O    basis set group =>   2
Atom  28C    basis set group =>   1
Atom  29C    basis set group =>   1
Atom  30C    basis set group =>   1
Atom  31C    basis set group =>   1
Atom  32C    basis set group =>   1
Atom  33C    basis set group =>   1
Atom  34C    basis set group =>   1
Atom  35C    basis set group =>   1
Atom  36O    basis set group =>   2
Atom  37O    basis set group =>   2
Atom  38O    basis set group =>   2
Atom  39O    basis set group =>   2
Atom  40O    basis set group =>   2
Atom  41C    basis set group =>   1
Atom  42H    basis set group =>   3
Atom  43H    basis set group =>   3
Atom  44H    basis set group =>   3
Atom  45H    basis set group =>   3
Atom  46H    basis set group =>   3
Atom  47H    basis set group =>   3
Atom  48H    basis set group =>   3
Atom  49H    basis set group =>   3
Atom  50H    basis set group =>   3
Atom  51H    basis set group =>   3
Atom  52H    basis set group =>   3
Atom  53H    basis set group =>   3
Atom  54H    basis set group =>   3
Atom  55H    basis set group =>   3
Atom  56H    basis set group =>   3
Atom  57H    basis set group =>   3
Atom  58H    basis set group =>   3
Atom  59H    basis set group =>   3
Atom  60H    basis set group =>   3
Atom  61H    basis set group =>   3
Atom  62H    basis set group =>   3
Atom  63H    basis set group =>   3
Atom  64H    basis set group =>   3
Atom  65H    basis set group =>   3
Atom  66H    basis set group =>   3
Atom  67H    basis set group =>   3
Atom  68H    basis set group =>   3
Atom  69H    basis set group =>   3
Atom  70H    basis set group =>   3
Atom  71H    basis set group =>   3
Atom  72H    basis set group =>   3
Atom  73H    basis set group =>   3
Atom  74H    basis set group =>   3
Atom  75H    basis set group =>   3
Atom  76H    basis set group =>   3
Atom  77H    basis set group =>   3
Atom  78H    basis set group =>   3
Atom  79H    basis set group =>   3
Atom  80H    basis set group =>   3
Atom  81H    basis set group =>   3
----------------------------------
AUXILIARY/JK BASIS SET INFORMATION
----------------------------------
There are 3 groups of distinct atoms

 Group   1 Type C   : 15s13p12d5f5g contracted to 15s13p12d5f5g pattern {111111111111111/1111111111111/111111111111/11111/11111}
 Group   2 Type O   : 15s13p12d5f5g contracted to 15s13p12d5f5g pattern {111111111111111/1111111111111/111111111111/11111/11111}
 Group   3 Type H   : 12s4p3d2f contracted to 12s4p3d2f pattern {111111111111/1111/111/11}

Atom   0C    basis set group =>   1
Atom   1C    basis set group =>   1
Atom   2C    basis set group =>   1
Atom   3C    basis set group =>   1
Atom   4C    basis set group =>   1
Atom   5C    basis set group =>   1
Atom   6C    basis set group =>   1
Atom   7C    basis set group =>   1
Atom   8C    basis set group =>   1
Atom   9C    basis set group =>   1
Atom  10C    basis set group =>   1
Atom  11C    basis set group =>   1
Atom  12C    basis set group =>   1
Atom  13C    basis set group =>   1
Atom  14C    basis set group =>   1
Atom  15C    basis set group =>   1
Atom  16C    basis set group =>   1
Atom  17C    basis set group =>   1
Atom  18O    basis set group =>   2
Atom  19O    basis set group =>   2
Atom  20O    basis set group =>   2
Atom  21O    basis set group =>   2
Atom  22O    basis set group =>   2
Atom  23C    basis set group =>   1
Atom  24C    basis set group =>   1
Atom  25C    basis set group =>   1
Atom  26C    basis set group =>   1
Atom  27O    basis set group =>   2
Atom  28C    basis set group =>   1
Atom  29C    basis set group =>   1
Atom  30C    basis set group =>   1
Atom  31C    basis set group =>   1
Atom  32C    basis set group =>   1
Atom  33C    basis set group =>   1
Atom  34C    basis set group =>   1
Atom  35C    basis set group =>   1
Atom  36O    basis set group =>   2
Atom  37O    basis set group =>   2
Atom  38O    basis set group =>   2
Atom  39O    basis set group =>   2
Atom  40O    basis set group =>   2
Atom  41C    basis set group =>   1
Atom  42H    basis set group =>   3
Atom  43H    basis set group =>   3
Atom  44H    basis set group =>   3
Atom  45H    basis set group =>   3
Atom  46H    basis set group =>   3
Atom  47H    basis set group =>   3
Atom  48H    basis set group =>   3
Atom  49H    basis set group =>   3
Atom  50H    basis set group =>   3
Atom  51H    basis set group =>   3
Atom  52H    basis set group =>   3
Atom  53H    basis set group =>   3
Atom  54H    basis set group =>   3
Atom  55H    basis set group =>   3
Atom  56H    basis set group =>   3
Atom  57H    basis set group =>   3
Atom  58H    basis set group =>   3
Atom  59H    basis set group =>   3
Atom  60H    basis set group =>   3
Atom  61H    basis set group =>   3
Atom  62H    basis set group =>   3
Atom  63H    basis set group =>   3
Atom  64H    basis set group =>   3
Atom  65H    basis set group =>   3
Atom  66H    basis set group =>   3
Atom  67H    basis set group =>   3
Atom  68H    basis set group =>   3
Atom  69H    basis set group =>   3
Atom  70H    basis set group =>   3
Atom  71H    basis set group =>   3
Atom  72H    basis set group =>   3
Atom  73H    basis set group =>   3
Atom  74H    basis set group =>   3
Atom  75H    basis set group =>   3
Atom  76H    basis set group =>   3
Atom  77H    basis set group =>   3
Atom  78H    basis set group =>   3
Atom  79H    basis set group =>   3
Atom  80H    basis set group =>   3
Atom  81H    basis set group =>   3
---------------------------------
AUXILIARY/X BASIS SET INFORMATION
---------------------------------
There are 3 groups of distinct atoms

 Group   1 Type C   : 15s13p12d5f5g contracted to 15s13p12d5f5g pattern {111111111111111/1111111111111/111111111111/11111/11111}
 Group   2 Type O   : 15s13p12d5f5g contracted to 15s13p12d5f5g pattern {111111111111111/1111111111111/111111111111/11111/11111}
 Group   3 Type H   : 12s4p3d2f contracted to 12s4p3d2f pattern {111111111111/1111/111/11}

Atom   0C    basis set group =>   1
Atom   1C    basis set group =>   1
Atom   2C    basis set group =>   1
Atom   3C    basis set group =>   1
Atom   4C    basis set group =>   1
Atom   5C    basis set group =>   1
Atom   6C    basis set group =>   1
Atom   7C    basis set group =>   1
Atom   8C    basis set group =>   1
Atom   9C    basis set group =>   1
Atom  10C    basis set group =>   1
Atom  11C    basis set group =>   1
Atom  12C    basis set group =>   1
Atom  13C    basis set group =>   1
Atom  14C    basis set group =>   1
Atom  15C    basis set group =>   1
Atom  16C    basis set group =>   1
Atom  17C    basis set group =>   1
Atom  18O    basis set group =>   2
Atom  19O    basis set group =>   2
Atom  20O    basis set group =>   2
Atom  21O    basis set group =>   2
Atom  22O    basis set group =>   2
Atom  23C    basis set group =>   1
Atom  24C    basis set group =>   1
Atom  25C    basis set group =>   1
Atom  26C    basis set group =>   1
Atom  27O    basis set group =>   2
Atom  28C    basis set group =>   1
Atom  29C    basis set group =>   1
Atom  30C    basis set group =>   1
Atom  31C    basis set group =>   1
Atom  32C    basis set group =>   1
Atom  33C    basis set group =>   1
Atom  34C    basis set group =>   1
Atom  35C    basis set group =>   1
Atom  36O    basis set group =>   2
Atom  37O    basis set group =>   2
Atom  38O    basis set group =>   2
Atom  39O    basis set group =>   2
Atom  40O    basis set group =>   2
Atom  41C    basis set group =>   1
Atom  42H    basis set group =>   3
Atom  43H    basis set group =>   3
Atom  44H    basis set group =>   3
Atom  45H    basis set group =>   3
Atom  46H    basis set group =>   3
Atom  47H    basis set group =>   3
Atom  48H    basis set group =>   3
Atom  49H    basis set group =>   3
Atom  50H    basis set group =>   3
Atom  51H    basis set group =>   3
Atom  52H    basis set group =>   3
Atom  53H    basis set group =>   3
Atom  54H    basis set group =>   3
Atom  55H    basis set group =>   3
Atom  56H    basis set group =>   3
Atom  57H    basis set group =>   3
Atom  58H    basis set group =>   3
Atom  59H    basis set group =>   3
Atom  60H    basis set group =>   3
Atom  61H    basis set group =>   3
Atom  62H    basis set group =>   3
Atom  63H    basis set group =>   3
Atom  64H    basis set group =>   3
Atom  65H    basis set group =>   3
Atom  66H    basis set group =>   3
Atom  67H    basis set group =>   3
Atom  68H    basis set group =>   3
Atom  69H    basis set group =>   3
Atom  70H    basis set group =>   3
Atom  71H    basis set group =>   3
Atom  72H    basis set group =>   3
Atom  73H    basis set group =>   3
Atom  74H    basis set group =>   3
Atom  75H    basis set group =>   3
Atom  76H    basis set group =>   3
Atom  77H    basis set group =>   3
Atom  78H    basis set group =>   3
Atom  79H    basis set group =>   3
Atom  80H    basis set group =>   3
Atom  81H    basis set group =>   3
--------------------------------------------------------------------------
WARNING: There was an error initializing an OpenFabrics device.

  Local host:   c02b01n02
  Local device: mlx5_0
--------------------------------------------------------------------------
--------------------------------------------------------------------------
WARNING: There is at least one non-excluded one OpenFabrics device found,
but there are no active ports detected (or Open MPI was unable to use
them).  This is most certainly not what you wanted.  Check your
cables, subnet manager configuration, etc.  The openib BTL will be
ignored for this job.

  Local host: c02b01n02
--------------------------------------------------------------------------
[c02b01n02:2071174] 50 more processes have sent help message help-mpi-btl-openib.txt / error in device init
[c02b01n02:2071174] Set MCA parameter "orte_base_help_aggregate" to 0 to see all help / error messages
[c02b01n02:2071174] 8 more processes have sent help message help-mpi-btl-openib.txt / no active ports found


           ************************************************************
           *        Program running with 60 parallel MPI-processes    *
           *              working on a common directory               *
           ************************************************************
------------------------------------------------------------------------------
                             ORCA STARTUP CALCULATIONS
                           -- RI-GTO INTEGRALS CHOSEN --
------------------------------------------------------------------------------
------------------------------------------------------------------------------
                   ___                                                        
                  /   \      - P O W E R E D   B Y -                         
                 /     \                                                     
                 |  |  |   _    _      __       _____    __    __             
                 |  |  |  | |  | |    /  \     |  _  \  |  |  /  |          
                  \  \/   | |  | |   /    \    | | | |  |  | /  /          
                 / \  \   | |__| |  /  /\  \   | |_| |  |  |/  /          
                |  |  |   |  __  | /  /__\  \  |    /   |      \           
                |  |  |   | |  | | |   __   |  |    \   |  |\   \          
                \     /   | |  | | |  |  |  |  | |\  \  |  | \   \       
                 \___/    |_|  |_| |__|  |__|  |_| \__\ |__|  \__/        
                                                                              
                      - O R C A' S   B I G   F R I E N D -                    
                                      &                                       
                       - I N T E G R A L  F E E D E R -                       
                                                                              
 v1 FN, 2020, v2 2021, v3 2022-2024                                           
------------------------------------------------------------------------------


----------------------
SHARK INTEGRAL PACKAGE
----------------------

Number of atoms                             ...     82
Number of basis functions                   ...   2072
Number of shells                            ...    744
Maximum angular momentum                    ...      3
Integral batch strategy                     ... SHARK/LIBINT Hybrid
RI-J (if used) integral strategy            ... SPLIT-RIJ (Revised 2003 algorithm where possible)
Printlevel                                  ...      1
Contraction scheme used                     ... SEGMENTED contraction
Prescreening option                         ... SCHWARTZ
   Thresh                                   ... 1.000e-10
   Tcut                                     ... 1.000e-11
   Tpresel                                  ... 1.000e-11 
Coulomb Range Separation                    ... NOT USED
Exchange Range Separation                   ... NOT USED
Multipole approximations                    ... NOT USED
Finite Nucleus Model                        ... NOT USED
CABS basis                                  ... NOT available
Auxiliary Coulomb fitting basis             ... AVAILABLE
   # of basis functions in Aux-J            ...  10268
   # of shells in Aux-J                     ...   2940
   Maximum angular momentum in Aux-J        ...      4
Auxiliary J/K fitting basis                 ... AVAILABLE
   # of basis functions in Aux-JK           ...  10268
   # of shells in Aux-JK                    ...   2940
   Maximum angular momentum in Aux-JK       ...      4
Auxiliary Correlation fitting basis         ... AVAILABLE
   # of basis functions in Aux-C            ...  10268
   # of shells in Aux-C                     ...   2940
   Maximum angular momentum in Aux-C        ...      4
Auxiliary 'external' fitting basis          ... NOT available

Checking pre-screening integrals            ... done (  0.0 sec) Dimension = 744
   => SHARK Basis and OBASIS are compatible. Storing Pre-screening
Shell pair information
Shell pair cut-off parameter TPreSel        ...   1.0e-11
Total number of shell pairs                 ...    277140
Shell pairs after pre-screening             ...    150019
Total number of primitive shell pairs       ...    823733
Primitive shell pairs kept                  ...    274699
          la=0 lb=0:  28601 shell pairs
          la=1 lb=0:  49914 shell pairs
          la=1 lb=1:  20376 shell pairs
          la=2 lb=0:  19654 shell pairs
          la=2 lb=1:  14830 shell pairs
          la=2 lb=2:   2644 shell pairs
          la=3 lb=0:   6786 shell pairs
          la=3 lb=1:   5097 shell pairs
          la=3 lb=2:   1787 shell pairs
          la=3 lb=3:    330 shell pairs

Checking whether 4 symmetric matrices of dimension 2072 fit in memory
:Max Core in MB      =   5000.00
 MB in use           =    185.29
 MB left             =   4814.71
 MB needed           =     65.54
 Data fit in memory  = YES
Calculating RI/J V-Matrix + Cholesky decomp.... done (  6.7 sec)
Calculating RI/JK V-Matrix + Cholesky decomp.... done (  4.0 sec)
Calculating RI/C V-Matrix + Cholesky decomp.... done (  4.3 sec)
Calculating Nuclear repulsion               ... done (  0.2 sec) ENN=   5681.859325709375 Eh

Diagonalization of the overlap matrix:
Smallest eigenvalue                        ... 7.294e-06
Time for diagonalization                   ...    5.406 sec
Threshold for overlap eigenvalues          ... 1.000e-07
Number of eigenvalues below threshold      ... 0
Time for construction of square roots      ...    0.475 sec
Total time needed                          ...    5.914 sec

-------------------
DFT GRID GENERATION
-------------------

General Integration Accuracy     IntAcc      ... 4.388
Radial Grid Type                 RadialGrid  ... OptM3 with GC (2021)
Angular Grid (max. ang.)         AngularGrid ... 4 (Lebedev-302)
Angular grid pruning method      GridPruning ... 4 (adaptive)
Weight generation scheme         WeightScheme... mBecke (2022)
Basis function cutoff            BFCut       ... 1.0000e-10
Integration weight cutoff        WCut        ... 1.0000e-14
Partially contracted basis set               ... off
Rotationally invariant grid construction     ... off
Angular grids for H and He will be reduced by one unit
Diffuse basis detected: some atoms will have their outermost
                        angular grid increased by 1.

Total number of grid points                  ...   376877
Total number of batches                      ...     5931
Average number of points per batch           ...       63
Average number of grid points per atom       ...     4596
Grids setup in   2.2 sec
Initializing property integral containers    ... done (  0.1 sec)

SHARK setup successfully completed in  33.2 seconds

Maximum memory used throughout the entire STARTUP-calculation: 257.3 MB
--------------------------------------------------------------------------
WARNING: There was an error initializing an OpenFabrics device.

  Local host:   c02b01n02
  Local device: mlx5_0
--------------------------------------------------------------------------
--------------------------------------------------------------------------
WARNING: There is at least one non-excluded one OpenFabrics device found,
but there are no active ports detected (or Open MPI was unable to use
them).  This is most certainly not what you wanted.  Check your
cables, subnet manager configuration, etc.  The openib BTL will be
ignored for this job.

  Local host: c02b01n02
--------------------------------------------------------------------------


           ************************************************************
           *        Program running with 60 parallel MPI-processes    *
           *              working on a common directory               *
           ************************************************************
-------------------------------------------------------------------------------
                                 ORCA GUESS
                   Start orbitals & Density for SCF / CASSCF
-------------------------------------------------------------------------------

------------
SCF SETTINGS
------------
Hamiltonian:
 Density Functional     Method          .... DFT(GTOs)
 Exchange Functional    Exchange        .... TPSS
 Correlation Functional Correlation     .... TPSS
 LDA part of GGA corr.  LDAOpt          .... PW91-LDA
 Gradients option       PostSCFGGA      .... off
   NL short-range parameter             ....  5.000000
 RI-approximation to the Coulomb term is turned on
   Number of AuxJ basis functions       .... 10268


General Settings:
 Integral files         IntName         .... nmr-conf-12
 Hartree-Fock type      HFTyp           .... RHF
 Total Charge           Charge          ....    0
 Multiplicity           Mult            ....    1
 Number of Electrons    NEL             ....  314
 Basis Dimension        Dim             .... 2072
 Nuclear Repulsion      ENuc            ....   5681.8593257094 Eh

Convergence Acceleration:
 AO-DIIS                CNVDIIS         .... on
   Start iteration      DIISMaxIt       ....    12
   Startup error        DIISStart       ....  0.200000
   # of expansion vecs  DIISMaxEq       ....     5
   Bias factor          DIISBfac        ....   1.050
   Max. coefficient     DIISMaxC        ....  10.000
 MO-DIIS                CNVKDIIS        .... off
 Trust-Rad. Augm. Hess. CNVTRAH         .... auto
   Auto Start mean grad. ratio tolernc. ....  1.125000
   Auto Start start iteration           ....    50
   Auto Start num. interpolation iter.  ....    10
   Max. Number of Micro iterations      ....    24
   Max. Number of Macro iterations      .... Maxiter - #DIIS iter
   Number of Davidson start vectors     ....     2
   Converg. threshold    (grad. norm)   ....   5.000e-05
   Grad. Scal. Fac. for Micro threshold ....   0.100
   Minimum threshold for Micro iter.    ....   1.000e-02
   NR start threshold (gradient norm)   ....   1.000e-04
   Initial trust radius                 ....   0.400
   Minimum AH scaling param. (alpha)    ....   1.000
   Maximum AH scaling param. (alpha)    .... 1000.000
   Quad. conv. algorithm                .... NR
   White noise on init. David. guess    .... on
   Maximum white noise                  ....   0.010
   Pseudo random numbers                .... off
   Inactive MOs                         .... canonical
   Orbital update algorithm             .... Taylor
   Preconditioner                       .... Diag
   Full preconditioner red. dimension   ....   250
 SOSCF                 CNVSOSCF           .... on
   Start iteration     SOSCFMaxIt         ....   150
   Startup grad/error  SOSCFStart         ....  0.003300
   Hessian update      SOSCFHessUp        .... L-BFGS
   Autom. constraints  SOSCFAutoConstrain .... off
 Level Shifting         CNVShift        .... on
   Level shift para.    LevelShift      ....    0.2500
   Turn off err/grad.   ShiftErr        ....    0.0010
 Zerner damping         CNVZerner       .... off
 Static damping         CNVDamp         .... on
   Fraction old density DampFac         ....    0.7000
   Max. Damping (<1)    DampMax         ....    0.9800
   Min. Damping (>=0)   DampMin         ....    0.0000
   Turn off err/grad.   DampErr         ....    0.1000

SCF Procedure:
 Maximum # iterations   MaxIter         ....   125
 SCF integral mode      SCFMode         .... Direct
   Integral package                     .... SHARK and LIBINT hybrid scheme
 Reset frequency        DirectResetFreq ....    20
 Integral Threshold     Thresh          ....  1.000e-10 Eh
 Primitive CutOff       TCut            ....  1.000e-11 Eh

Convergence Tolerance:
 Convergence Check Mode ConvCheckMode   .... Total+1el-Energy
 Convergence forced     ConvForced      .... 0
 Energy Change          TolE            ....  1.000e-06 Eh
 1-El. energy change                    ....  1.000e-03 Eh
 Orbital Gradient       TolG            ....  5.000e-05
 Orbital Rotation angle TolX            ....  5.000e-05
 DIIS Error             TolErr          ....  1.000e-06

------------------------------
INITIAL GUESS: MODEL POTENTIAL
------------------------------
Loading Hartree-Fock densities                     ... done
Calculating cut-offs                               ... done
Initializing the effective Hamiltonian             ... done
Setting up the integral package (SHARK)            ... done
Starting the Coulomb interaction                   ... done (   0.7 sec)
Making the grid                                    ... done (   0.7 sec)
Mapping shells                                     ... done
Starting the XC term evaluation                    ... done (   0.2 sec)
  promolecular density results
     # of electrons  =    313.994014768
     EX              =   -260.288528281
     EC              =    -10.631497808
     EX+EC           =   -270.920026088
Transforming the Hamiltonian                       ... done (   0.3 sec)
Diagonalizing the Hamiltonian                      ... [c02b01n02:2071570] 50 more processes have sent help message help-mpi-btl-openib.txt / error in device init
[c02b01n02:2071570] Set MCA parameter "orte_base_help_aggregate" to 0 to see all help / error messages
[c02b01n02:2071570] 8 more processes have sent help message help-mpi-btl-openib.txt / no active ports found
done (   0.6 sec)
Back transforming the eigenvectors                 ... done (   0.2 sec)
Now organizing SCF variables                       ... done
                      ------------------
                      INITIAL GUESS DONE (   3.4 sec)
                      ------------------
             **** ENERGY FILE WAS UPDATED (nmr-conf-12.en.tmp) ****
Finished Guess after   7.6 sec
Maximum memory used throughout the entire GUESS-calculation: 288.8 MB
--------------------------------------------------------------------------
WARNING: There was an error initializing an OpenFabrics device.

  Local host:   c02b01n02
  Local device: mlx5_0
--------------------------------------------------------------------------
--------------------------------------------------------------------------
WARNING: There is at least one non-excluded one OpenFabrics device found,
but there are no active ports detected (or Open MPI was unable to use
them).  This is most certainly not what you wanted.  Check your
cables, subnet manager configuration, etc.  The openib BTL will be
ignored for this job.

  Local host: c02b01n02
--------------------------------------------------------------------------


           ************************************************************
           *        Program running with 60 parallel MPI-processes    *
           *              working on a common directory               *
           ************************************************************

-------------------------------------------------------------------------------------------
                                      ORCA LEAN-SCF
                              memory conserving SCF solver
-------------------------------------------------------------------------------------------

--------------------
CPCM SOLVATION MODEL
--------------------
CPCM parameters:
  Epsilon                                         ...      33.4280
  Refrac                                          ...       1.3288
  Rsolv                                           ...       1.3000
  Surface type                                    ... GAUSSIAN VDW
  Discretization scheme                           ... Constant charge density
    Threshold for H atoms                         ...       5.0000 (charges/Ang^2)
    Threshold for non-H atoms                     ...       5.0000 (charges/Ang^2)
  Epsilon function type                           ...         CPCM
Solvent:                                          ... METHANOL
Radii:
  Scheme                                          ... Element-dependent radii
  Radius for C  used is    3.8550 Bohr (=   2.0400 Ang.)
  Radius for O  used is    3.4469 Bohr (=   1.8240 Ang.)
  Radius for H  used is    2.4944 Bohr (=   1.3200 Ang.)
Calculating surface                               ...        done! (  0.3s)
Cavity surface points                             ...         6266
Cavity Volume                                     ...    4553.9051
Cavity Surface-area                               ...    2119.2882
Calculating surface distance matrix               ...        done! (  0.2s)
Performing Cholesky decomposition & store         ...        done! (  0.7s)
Overall time for CPCM initialization              ...                 1.2s

[c02b01n02:2072078] 47 more processes have sent help message help-mpi-btl-openib.txt / error in device init
[c02b01n02:2072078] Set MCA parameter "orte_base_help_aggregate" to 0 to see all help / error messages
[c02b01n02:2072078] 11 more processes have sent help message help-mpi-btl-openib.txt / no active ports found
----------------------------------------D-I-I-S--------------------------------------------
Iteration    Energy (Eh)           Delta-E    RMSDP     MaxDP     DIISErr   Damp  Time(sec)
-------------------------------------------------------------------------------------------
               ***  Starting incremental Fock matrix formation  ***
    1    -2033.0146063862557639     0.00e+00  7.89e-03  2.99e-01  2.36e-01  0.700  11.2
    2    -2033.4254155261560300    -4.11e-01  6.39e-03  2.34e-01  8.18e-02  0.700   8.9
                               ***Turning on AO-DIIS***
    3    -2033.5786666189642347    -1.53e-01  2.75e-03  7.95e-02  2.46e-02  0.700   7.3
    4    -2033.6712564021272556    -9.26e-02  4.68e-03  8.33e-02  1.13e-02  0.000   6.8
    5    -2033.8764098634255788    -2.05e-01  1.20e-03  2.91e-02  4.72e-03  0.000   6.9
                              *** Initializing SOSCF ***
---------------------------------------S-O-S-C-F--------------------------------------
Iteration    Energy (Eh)           Delta-E    RMSDP     MaxDP     MaxGrad    Time(sec)
--------------------------------------------------------------------------------------
    6    -2033.8777942253582296    -1.38e-03  3.81e-04  6.15e-03  1.27e-03     7.8
               *** Restarting incremental Fock matrix formation ***
    7    -2033.8778995850843785    -1.05e-04  2.98e-04  5.78e-03  1.30e-04     6.4
    8    -2033.8778768514757758     2.27e-05  7.83e-05  2.36e-03  6.59e-04     5.7
    9    -2033.8779158658489905    -3.90e-05  6.44e-05  1.00e-03  1.22e-04     5.5
   10    -2033.8779163303097448    -4.64e-07  1.97e-05  5.25e-04  1.04e-04     5.4
                 **** Energy Check signals convergence ****

               *****************************************************
               *                     SUCCESS                       *
               *           SCF CONVERGED AFTER  10 CYCLES          *
               *****************************************************

             **** ENERGY FILE WAS UPDATED (nmr-conf-12.en.tmp) ****

----------------
TOTAL SCF ENERGY
----------------

Total Energy       :      -2033.87791633487723 Eh          -55344.63177 eV

Components:
Nuclear Repulsion  :       5681.85932570937530 Eh          154611.25254 eV
Electronic Energy  :      -7715.68616264594311 Eh         -209954.49437 eV
One Electron Energy:     -14091.24456063343678 Eh         -383442.25832 eV
Two Electron Energy:       6375.55839798749366 Eh          173487.76396 eV
CPCM Dielectric    :         -0.05107939830918 Eh              -1.38994 eV

Virial components:
Potential Energy   :      -4061.10922862101052 Eh         -110508.40025 eV
Kinetic Energy     :       2027.23131228613306 Eh           55163.76848 eV
Virial Ratio       :          2.00327866090488

DFT components:
N(Alpha)           :      157.000331377807 electrons
N(Beta)            :      157.000331377807 electrons
N(Total)           :      314.000662755615 electrons
E(X)               :     -268.088344640931 Eh       
E(C)               :      -10.599196605218 Eh       
E(XC)              :     -278.687541246149 Eh       

CPCM Solvation Model Properties:
Surface-charge          :         -0.04246451537016
Corrected charge        :          0.00000000000000
Outlying charge corr.   :          0.00007738412071 Eh               0.00211 eV
Free-energy (cav+disp)  :  This term is not implemented in the current solvation scheme

---------------
SCF CONVERGENCE
---------------

  Last Energy change         ...    4.6446e-07  Tolerance :   1.0000e-06
  Last MAX-Density change    ...    5.2497e-04  Tolerance :   1.0000e-05
  Last RMS-Density change    ...    1.9684e-05  Tolerance :   1.0000e-06
  Last DIIS Error            ...    1.2708e-03  Tolerance :   1.0000e-06
  Last Orbital Gradient      ...    1.0422e-04  Tolerance :   5.0000e-05
  Last Orbital Rotation      ...    2.1218e-04  Tolerance :   5.0000e-05


----------------
ORBITAL ENERGIES
----------------

  NO   OCC          E(Eh)            E(eV) 
   0   2.0000     -18.921458      -514.8790 
   1   2.0000     -18.919439      -514.8241 
   2   2.0000     -18.918484      -514.7981 
   3   2.0000     -18.911927      -514.6197 
   4   2.0000     -18.909841      -514.5629 
   5   2.0000     -18.909631      -514.5572 
   6   2.0000     -18.900157      -514.2994 
   7   2.0000     -18.884373      -513.8699 
   8   2.0000     -18.880016      -513.7513 
   9   2.0000     -18.878059      -513.6981 
  10   2.0000     -18.868573      -513.4400 
  11   2.0000     -10.048333      -273.4290 
  12   2.0000     -10.047950      -273.4186 
  13   2.0000     -10.043975      -273.3104 
  14   2.0000     -10.042683      -273.2753 
  15   2.0000     -10.041507      -273.2433 
  16   2.0000     -10.041311      -273.2380 
  17   2.0000     -10.041081      -273.2317 
  18   2.0000     -10.039951      -273.2010 
  19   2.0000     -10.036598      -273.1097 
  20   2.0000     -10.033805      -273.0337 
  21   2.0000     -10.032958      -273.0107 
  22   2.0000     -10.032352      -272.9942 
  23   2.0000     -10.031515      -272.9714 
  24   2.0000     -10.028682      -272.8943 
  25   2.0000     -10.024615      -272.7836 
  26   2.0000     -10.020422      -272.6696 
  27   2.0000      -9.990940      -271.8673 
  28   2.0000      -9.990391      -271.8523 
  29   2.0000      -9.989088      -271.8169 
  30   2.0000      -9.987407      -271.7712 
  31   2.0000      -9.986724      -271.7526 
  32   2.0000      -9.984180      -271.6833 
  33   2.0000      -9.983858      -271.6746 
  34   2.0000      -9.983466      -271.6639 
  35   2.0000      -9.982951      -271.6499 
  36   2.0000      -9.982789      -271.6455 
  37   2.0000      -9.982366      -271.6340 
  38   2.0000      -9.979525      -271.5567 
  39   2.0000      -9.978469      -271.5280 
  40   2.0000      -9.975032      -271.4344 
  41   2.0000      -9.974456      -271.4187 
  42   2.0000      -1.016539       -27.6614 
  43   2.0000      -1.011266       -27.5179 
  44   2.0000      -1.007126       -27.4053 
  45   2.0000      -0.996913       -27.1274 
  46   2.0000      -0.990633       -26.9565 
  47   2.0000      -0.983404       -26.7598 
  48   2.0000      -0.980073       -26.6691 
  49   2.0000      -0.956942       -26.0397 
  50   2.0000      -0.949819       -25.8459 
  51   2.0000      -0.949247       -25.8303 
  52   2.0000      -0.941735       -25.6259 
  53   2.0000      -0.798907       -21.7394 
  54   2.0000      -0.796882       -21.6843 
  55   2.0000      -0.793720       -21.5982 
  56   2.0000      -0.759942       -20.6791 
  57   2.0000      -0.732280       -19.9264 
  58   2.0000      -0.717371       -19.5207 
  59   2.0000      -0.704354       -19.1664 
  60   2.0000      -0.700932       -19.0733 
  61   2.0000      -0.697090       -18.9688 
  62   2.0000      -0.696238       -18.9456 
  63   2.0000      -0.686246       -18.6737 
  64   2.0000      -0.667519       -18.1641 
  65   2.0000      -0.653309       -17.7775 
  66   2.0000      -0.649597       -17.6764 
  67   2.0000      -0.648555       -17.6481 
  68   2.0000      -0.638261       -17.3680 
  69   2.0000      -0.623999       -16.9799 
  70   2.0000      -0.617792       -16.8110 
  71   2.0000      -0.613294       -16.6886 
  72   2.0000      -0.577774       -15.7220 
  73   2.0000      -0.568628       -15.4732 
  74   2.0000      -0.562776       -15.3139 
  75   2.0000      -0.558556       -15.1991 
  76   2.0000      -0.550465       -14.9789 
  77   2.0000      -0.544210       -14.8087 
  78   2.0000      -0.538589       -14.6558 
  79   2.0000      -0.532804       -14.4983 
  80   2.0000      -0.513190       -13.9646 
  81   2.0000      -0.511926       -13.9302 
  82   2.0000      -0.505006       -13.7419 
  83   2.0000      -0.499234       -13.5849 
  84   2.0000      -0.483277       -13.1506 
  85   2.0000      -0.474735       -12.9182 
  86   2.0000      -0.470888       -12.8135 
  87   2.0000      -0.469293       -12.7701 
  88   2.0000      -0.464923       -12.6512 
  89   2.0000      -0.457195       -12.4409 
  90   2.0000      -0.451583       -12.2882 
  91   2.0000      -0.448706       -12.2099 
  92   2.0000      -0.444287       -12.0897 
  93   2.0000      -0.440357       -11.9827 
  94   2.0000      -0.438721       -11.9382 
  95   2.0000      -0.433074       -11.7845 
  96   2.0000      -0.428027       -11.6472 
  97   2.0000      -0.425550       -11.5798 
  98   2.0000      -0.422737       -11.5033 
  99   2.0000      -0.421304       -11.4643 
 100   2.0000      -0.417761       -11.3679 
 101   2.0000      -0.411547       -11.1988 
 102   2.0000      -0.407178       -11.0799 
 103   2.0000      -0.403981       -10.9929 
 104   2.0000      -0.402383       -10.9494 
 105   2.0000      -0.400420       -10.8960 
 106   2.0000      -0.394884       -10.7453 
 107   2.0000      -0.394372       -10.7314 
 108   2.0000      -0.389839       -10.6081 
 109   2.0000      -0.385785       -10.4977 
 110   2.0000      -0.384164       -10.4536 
 111   2.0000      -0.382351       -10.4043 
 112   2.0000      -0.377818       -10.2809 
 113   2.0000      -0.376073       -10.2335 
 114   2.0000      -0.372130       -10.1262 
 115   2.0000      -0.369920       -10.0660 
 116   2.0000      -0.369671       -10.0593 
 117   2.0000      -0.364862        -9.9284 
[...]
 
 sDSO          -115.919           -0.984           -5.258  iso=     -40.720
 sPSO           139.798           28.590           37.317  iso=      68.569
        ---------------  ---------------  ---------------
 Total           23.879           27.606           32.059  iso=      27.848

 Orientation: 
  X           0.9870867    0.1600672    0.0061978
  Y          -0.1456214    0.9127793   -0.3816127
  Z          -0.0667409    0.3757823    0.9243015

 --------------
 Nucleus  73H :
 --------------

Diamagnetic contribution to the shielding tensor (ppm) : 
          -100.942        120.568       -56.201
           -70.889         96.373       -28.230
           -61.114         34.080       -36.456

Paramagnetic contribution to the shielding tensor (ppm): 
           129.705       -116.765        55.040
            75.978        -66.790        27.807
            58.966        -33.555        61.422

Total shielding tensor (ppm): 
            28.763          3.803        -1.160
             5.090         29.583        -0.424
            -2.147          0.525        24.966


 Diagonalized sT*s matrix:
 
 sDSO           -93.544           18.204           34.316  iso=     -13.675
 sPSO           117.067            7.814           -0.545  iso=      41.446
        ---------------  ---------------  ---------------
 Total           23.523           26.018           33.771  iso=      27.771

 Orientation: 
  X           0.5729174    0.4419982    0.6902197
  Y          -0.4332668   -0.5515222    0.7128135
  Z           0.6957338   -0.7074326   -0.1244735

 --------------
 Nucleus  74H :
 --------------

Diamagnetic contribution to the shielding tensor (ppm) : 
          -146.607          0.990       -49.448
          -100.351         49.938       -17.987
           -54.550         13.724      -107.594

Paramagnetic contribution to the shielding tensor (ppm): 
           170.469         -1.190        47.995
            99.076        -16.552        18.036
            53.582        -15.538       132.381

Total shielding tensor (ppm): 
            23.862         -0.200        -1.453
            -1.275         33.386         0.049
            -0.968         -1.814        24.787


 Diagonalized sT*s matrix:
 
 sDSO          -188.789          -70.485           55.010  iso=     -68.088
 sPSO           211.700           96.096          -21.497  iso=      95.433
        ---------------  ---------------  ---------------
 Total           22.911           25.611           33.513  iso=      27.345

 Orientation: 
  X          -0.8142317   -0.5758028   -0.0740133
  Y          -0.1040757    0.0193544    0.9943810
  Z          -0.5711349    0.8173595   -0.0756860

 --------------
 Nucleus  75H :
 --------------

Diamagnetic contribution to the shielding tensor (ppm) : 
            31.428       -246.730        26.828
           -10.834       -139.663        30.686
            -7.662         47.921       -90.607

Paramagnetic contribution to the shielding tensor (ppm): 
            -1.160        246.630       -29.417
             8.000        164.316       -23.072
             5.281        -40.963       126.240

Total shielding tensor (ppm): 
            30.268         -0.100        -2.589
            -2.833         24.652         7.615
            -2.381          6.958        35.632


 Diagonalized sT*s matrix:
 
 sDSO          -160.766           -3.966          -34.112  iso=     -66.281
 sPSO           181.787           33.393           74.216  iso=      96.465
        ---------------  ---------------  ---------------
 Total           21.021           29.427           40.105  iso=      30.184

 Orientation: 
  X          -0.0018989    0.9572778   -0.2891637
  Y           0.8981751    0.1287593    0.4203601
  Z          -0.4396339    0.2589214    0.8600475

 --------------
 Nucleus  76H :
 --------------

Diamagnetic contribution to the shielding tensor (ppm) : 
          -149.125         22.626       -64.759
          -122.548         64.261       -28.282
            26.564        -26.519       -59.754

Paramagnetic contribution to the shielding tensor (ppm): 
           182.548        -25.573        52.470
           119.032        -42.068        31.663
           -40.116         28.061        90.035

Total shielding tensor (ppm): 
            33.423         -2.948       -12.289
            -3.516         22.193         3.381
           -13.552          1.542        30.280


 Diagonalized sT*s matrix:
 
 sDSO          -126.782           63.885          -81.722  iso=     -48.206
 sPSO           145.589          -42.359          127.285  iso=      76.838
        ---------------  ---------------  ---------------
 Total           18.807           21.526           45.564  iso=      28.632

 Orientation: 
  X          -0.6637388    0.0577210   -0.7457339
  Y          -0.0925370    0.9830211    0.1584498
  Z          -0.7422181   -0.1741773    0.6471280

 --------------
 Nucleus  77H :
 --------------

Diamagnetic contribution to the shielding tensor (ppm) : 
           -60.366        149.343        -9.866
           -47.760        128.092       -10.063
            39.531        -31.210        16.685

Paramagnetic contribution to the shielding tensor (ppm): 
            89.060       -147.166         9.640
            48.456        -86.547         6.540
           -40.397         28.494         5.877

Total shielding tensor (ppm): 
            28.694          2.177        -0.226
             0.695         41.545        -3.523
            -0.866         -2.716        22.563


 Diagonalized sT*s matrix:
 
 sDSO            14.656          -69.629          139.384  iso=      28.137
 sPSO             7.393           98.171          -97.174  iso=       2.797
        ---------------  ---------------  ---------------
 Total           22.050           28.542           42.210  iso=      30.934

 Orientation: 
  X           0.0383682   -0.9941597   -0.1008681
  Y           0.1611211    0.1057765   -0.9812499
  Z           0.9861886    0.0213968    0.1642386

 --------------
 Nucleus  78H :
 --------------

Diamagnetic contribution to the shielding tensor (ppm) : 
          -122.216         -9.493       -17.756
          -104.326         43.544        -5.053
           -46.125         21.539       -38.580

Paramagnetic contribution to the shielding tensor (ppm): 
           144.709         13.742        20.462
           110.360        -22.682         8.205
            48.358        -21.494        73.929

Total shielding tensor (ppm): 
            22.493          4.249         2.706
             6.034         20.862         3.152
             2.233          0.045        35.349


 Diagonalized sT*s matrix:
 
 sDSO            33.419          -92.645          -58.026  iso=     -39.084
 sPSO           -16.943          118.625           94.274  iso=      65.319
        ---------------  ---------------  ---------------
 Total           16.476           25.980           36.248  iso=      26.235

 Orientation: 
  X           0.6411193    0.7288649    0.2402542
  Y          -0.7663108    0.6249816    0.1488817
  Z          -0.0416398   -0.2795603    0.9592248

 --------------
 Nucleus  79H :
 --------------

Diamagnetic contribution to the shielding tensor (ppm) : 
           -37.537        -45.363       -32.633
           -40.147          4.354        -7.553
          -109.165         96.012       -72.675

Paramagnetic contribution to the shielding tensor (ppm): 
            64.615         48.282        30.954
            42.972         19.354         8.982
           110.970        -93.220       102.709

Total shielding tensor (ppm): 
            27.078          2.919        -1.679
             2.825         23.708         1.429
             1.804          2.792        30.034


 Diagonalized sT*s matrix:
 
 sDSO            -3.488          -24.340          -78.030  iso=     -35.286
 sPSO            25.157           52.548          108.974  iso=      62.226
        ---------------  ---------------  ---------------
 Total           21.668           28.208           30.944  iso=      26.940

 Orientation: 
  X          -0.4636539    0.8273980    0.3169188
  Y           0.8610814    0.3365325    0.3811622
  Z          -0.2087194   -0.4496203    0.8684917

 --------------
 Nucleus  80H :
 --------------

Diamagnetic contribution to the shielding tensor (ppm) : 
            88.898        -76.179       -30.322
            35.579          2.242       -19.644
          -129.827        112.711        -0.345

Paramagnetic contribution to the shielding tensor (ppm): 
           -63.012         77.772        29.509
           -34.991         27.593        18.612
           129.890       -115.535        28.090

Total shielding tensor (ppm): 
            25.886          1.592        -0.813
             0.588         29.834        -1.032
             0.064         -2.824        27.745


 Diagonalized sT*s matrix:
 
 sDSO           109.255            6.595          -25.054  iso=      30.265
 sPSO           -83.659           20.055           56.274  iso=      -2.443
        ---------------  ---------------  ---------------
 Total           25.595           26.650           31.220  iso=      27.822

 Orientation: 
  X           0.9575703    0.2121082   -0.1951137
  Y          -0.2720387    0.4417049   -0.8549220
  Z          -0.0951533    0.8717264    0.4806651

 --------------
 Nucleus  81H :
 --------------

Diamagnetic contribution to the shielding tensor (ppm) : 
            -4.111       -166.784       -21.254
           -36.584        -76.333        -2.902
           -94.616        106.553      -135.908

Paramagnetic contribution to the shielding tensor (ppm): 
            36.156        166.937        16.963
            36.987        101.457         5.241
            90.195       -105.966       163.622

Total shielding tensor (ppm): 
            32.045          0.153        -4.291
             0.403         25.124         2.339
            -4.421          0.587        27.714


 Diagonalized sT*s matrix:
 
 sDSO          -110.295         -127.918           21.862  iso=     -72.117
 sPSO           133.962          154.360           12.912  iso=     100.412
        ---------------  ---------------  ---------------
 Total           23.667           26.442           34.774  iso=      28.294

 Orientation: 
  X          -0.3465920    0.4082304   -0.8445247
  Y           0.7074547    0.7049574    0.0504272
  Z          -0.6159398    0.5799853    0.5331371



--------------------------------
CHEMICAL SHIELDING SUMMARY (ppm)
--------------------------------


  Nucleus  Element    Isotropic     Anisotropy
  -------  -------  ------------   ------------
      0       C           24.573        124.226 
      1       C           46.151         93.479 
      2       C           24.045        121.471 
      3       C           77.725        131.061 
      4       C           39.655        194.224 
      5       C           76.412        126.904 
      6       C          146.977         34.788 
      7       C          133.707         18.339 
      8       C          136.184         24.483 
      9       C          143.521         39.774 
     10       C           43.578        182.905 
     11       C           71.330        154.255 
     12       C           29.844        118.337 
     13       C           32.353        123.035 
     14       C           67.114        143.475 
     15       C           56.305        148.036 
     16       C          115.966         72.212 
     17       C          113.083         67.143 
     23       C           95.258         46.467 
     24       C          102.779         44.208 
     25       C           42.686        183.448 
     26       C          112.669         55.920 
     28       C           74.518        160.058 
     29       C           30.995        119.883 
     30       C           32.957        121.217 
     31       C           67.014        147.294 
     32       C           57.629        153.474 
     33       C          124.194         77.234 
     34       C          123.447         75.171 
     35       C          124.054         80.005 
     41       C          124.401         76.635 
     42       H           25.864          8.984 
     43       H           25.817          9.945 
     44       H           29.026          4.652 
     45       H           30.143          6.483 
     46       H           30.784          4.177 
     47       H           29.020          3.073 
     48       H           29.121          4.488 
     49       H           28.207          7.997 
     50       H           24.638         10.212 
     51       H           24.685          3.193 
     52       H           24.594          5.602 
     53       H           28.350          5.352 
     54       H           28.101          7.538 
     55       H           27.555          6.393 
     56       H           28.411          5.229 
     57       H           25.308         13.043 
     58       H           26.552          5.659 
     59       H           26.978          3.154 
     60       H           27.398          7.729 
     61       H           27.267          5.164 
     62       H           29.341         16.322 
     63       H           24.898         10.706 
     64       H           25.167          5.118 
     65       H           25.092          4.321 
     66       H           27.947          6.876 
     67       H           27.541          9.347 
     68       H           28.052          9.753 
     69       H           28.050          9.139 
     70       H           28.044          8.379 
     71       H           27.468          7.778 
     72       H           27.848          6.317 
     73       H           27.771          9.001 
     74       H           27.345          9.251 
     75       H           30.184         14.881 
     76       H           28.632         25.398 
     77       H           30.934         16.914 
     78       H           26.235         15.020 
     79       H           26.940          6.005 
     80       H           27.822          5.097 
     81       H           28.294          9.719 


NMR shielding tensor and spin rotation calculation done in   3.7 sec 

Maximum memory used throughout the entire PROP-calculation: 366.2 MB
--------------------------------------------------------------------------
WARNING: There was an error initializing an OpenFabrics device.

  Local host:   c02b01n02
  Local device: mlx5_0
--------------------------------------------------------------------------
--------------------------------------------------------------------------
WARNING: There is at least one non-excluded one OpenFabrics device found,
but there are no active ports detected (or Open MPI was unable to use
them).  This is most certainly not what you wanted.  Check your
cables, subnet manager configuration, etc.  The openib BTL will be
ignored for this job.

  Local host: c02b01n02
--------------------------------------------------------------------------
[c02b01n02:2074037] 50 more processes have sent help message help-mpi-btl-openib.txt / error in device init
[c02b01n02:2074037] Set MCA parameter "orte_base_help_aggregate" to 0 to see all help / error messages
[c02b01n02:2074037] 8 more processes have sent help message help-mpi-btl-openib.txt / no active ports found

--------------------------------
SUGGESTED CITATIONS FOR THIS RUN
--------------------------------

Below you find a list of papers that are relevant to this ORCA run
We neither can nor want to force you to cite these papers, but we appreciate if you do
You receive ORCA, which is the product of decades of hard work by many enthusiastic individuals, for free
The only thing we kindly ask in return is that you cite our papers,
We deeply appreciate it, if you show your appreciation for ORCA by not just citing the generic ORCA reference.

Please note that relegating all ORCA citations to the supporting information does *not* help us.
SI sections are not indexed - citations you put there will not count into any citation statistics
But we need these citations in order to attract the funding resources that allow us to do what we are doing

Therefore, if you are a happy ORCA user, please consider citing a few of the papers listed below in the main body of your paper

In addition to the list printed below, the program has created the file nmr-conf-12.bibtex that contains the list in bibtex format
You can import this file easily into all common literature databanks and citation aid programs


List of essential papers. We consider these as the minimum necessary citations

  1. Neese, F.
     Software update: the ORCA program system, version 6.0
     WIRES Comput. Molec. Sci. 2025 15(1), e70019
     doi.org/10.1002/wcms.7019

List of papers to cite with high priority. The work reported in these papers was absolutely
necessary for this run to complete.
Our perspective: the developers of density functionals and basis sets usually get cited in chemistry papers
Good! But without the algorithms to do something with them, the functionals or basis sets would not do anything.
Hence, in our opinion, the algorithm design and method developments papers are equally worthy of getting cited

  1. Neese, F.
     An improvement of the resolution of the identity approximation for the formation of the Coulomb matrix
     J. Comp. Chem. 2003 24(14), 1740-1747
     doi.org/10.1002/jcc.10318
  2. Stoychev, G.L.; Auer, A.A.; Neese, F.
     Automatic Generation of Auxiliary Basis Sets
     J. Theo. Comp. Chem. 2017 13 , 554-562
     doi.org/10.1021/acs.jctc.6b01041
  3. Stoychev, G.L.; Auer, A.A.; Izsak, R.; Neese, F.
     Self-Consistent Field Calculation of Nuclear Magnetic Resonance Chemical Shielding Constants Using Gauge-Including Atomic Orbitals and Approximate Two-Electron Integrals
     J. Chem. Theory Comput. 2018 14(2), 619-637
     doi.org/10.1021/acs.jctc.7b01006
  4. Garcia-Rates, M.; Neese, F.
     Effect of the Solute Cavity on the Solvation Energy and its Derivatives within the Framework of the Gaussian Charge Scheme
     J. Comput. Chem. 2020 41 , 922-939
     doi.org/10.1002/jcc.26139
  5. Neese, F.
     The SHARK Integral Generation and Digestion System
     J. Comp. Chem. 2022 44(3), 381
     doi.org/10.1002/jcc.26942

List of suggested additional citations. These are papers that are important in the 'surrounding' of 
of this run, or papers that preceded the highly important papers. If you like your results we are grateful for a citation.

  1. Neese, F.
     The ORCA program system
     WIRES Comput. Molec. Sci. 2012 2(1), 73-78
     doi.org/10.1002/wcms.81
  2. Neese, F.
     Software update: the ORCA program system, version 4.0
     WIRES Comput. Molec. Sci. 2018 8(1), 1-6
     doi.org/10.1002/wcms.1327
  3. Neese, F.; Wennmohs, F.; Becker, U.; Riplinger, C.
     The ORCA quantum chemistry program package
     J. Chem. Phys. 2020 152(22), 224108
     doi.org/10.1063/5.0004608
  4. Neese, F.
     Software update: The ORCA program system—Version 5.0
     WIRES Comput. Molec. Sci. 2022 12(1), e1606
     doi.org/10.1002/wcms.1606

List of optional additional citations

  1. Neese, F.
     Approximate second-order SCF convergence for spin unrestricted wavefunctions
     Chem. Phys. Lett. 2000 325(1-3), 93-98
     doi.org/10.1016/s0009-2614(00)00662-x

Timings for individual modules:

Sum of individual times          ...      249.244 sec (=   4.154 min)
Startup calculation              ...       82.364 sec (=   1.373 min)  33.0 %
SCF iterations                   ...       97.317 sec (=   1.622 min)  39.0 %
Property integrals               ...       50.745 sec (=   0.846 min)  20.4 %
SCF Response                     ...       10.655 sec (=   0.178 min)   4.3 %
Property calculations            ...        8.163 sec (=   0.136 min)   3.3 %
                             ****ORCA TERMINATED NORMALLY****
TOTAL RUN TIME: 0 days 0 hours 4 minutes 36 seconds 918 msec
