
                                 *****************
                                 * O   R   C   A *
                                 *****************

                                            #,                                       
                                            ###                                      
                                            ####                                     
                                            #####                                    
                                            ######                                   
                                           ########,                                 
                                     ,,################,,,,,                         
                               ,,#################################,,                 
                          ,,##########################################,,             
                       ,#########################################, ''#####,          
                    ,#############################################,,   '####,        
                  ,##################################################,,,,####,       
                ,###########''''           ''''###############################       
              ,#####''   ,,,,##########,,,,          '''####'''          '####       
            ,##' ,,,,###########################,,,                        '##       
           ' ,,###''''                  '''############,,,                           
         ,,##''                                '''############,,,,        ,,,,,,###''
      ,#''                                            '''#######################'''  
     '                                                          ''''####''''         
             ,#######,   #######,   ,#######,      ##                                
            ,#'     '#,  ##    ##  ,#'     '#,    #''#        ,####,    ,#,          
            ##       ##  ##   ,#'  ##            #'  '#       #'       ,# #          
            ##       ##  #######   ##           ,######,      #####,      #          
            '#,     ,#'  ##    ##  '#,     ,#' ,#      #,     #,   #      #          
             '#######'   ##     ##  '#######'  #'      '#     '####' #    #          



                #########################################################
                #                        -***-                          #
                #          Department of theory and spectroscopy        #
                #                                                       #
                #                      Frank Neese                      #
                #                                                       #
                #     Directorship, Architecture, Infrastructure        #
                #                    SHARK, DRIVERS                     #
                #        Core code/Algorithms in most modules           #
                #                                                       #
                #        Max Planck Institute fuer Kohlenforschung      #
                #                Kaiser Wilhelm Platz 1                 #
                #                 D-45470 Muelheim/Ruhr                 #
                #                      Germany                          #
                #                                                       #
                #                  All rights reserved                  #
                #                        -***-                          #
                #########################################################


                         Program Version 6.1.0-f.0  -   RELEASE   -


 With contributions from (in alphabetic order):
[Max-Planck-Institut fuer Kohlenforschung]                               
  Daniel Aravena         : Magnetic Suceptibility                        
  Michael Atanasov       : Ab Initio Ligand Field Theory (pilot matlab implementation)
  Alexander A. Auer      : GIAO ZORA, VPT2 properties, NMR spectrum      
  Ute Becker             : All parallelization in ORCA, NUMFREQ, NUMCALC 
  Giovanni Bistoni       : ED, misc. LED, open-shell LED, HFLD           
  Dmytro Bykov           : pre 5.0 version of the SCF Hessian            
  Marcos Casanova-Páez   : Triplet and SCS-CIS(D). UHF-(DLPNO)-IP/EA/STEOM-CCSD. UHF-CVS-IP/STEOM-CCSD   
  Vijay G. Chilkuri      : MRCI spin determinant printing, contributions to CSF-ICE 
  Pauline Colinet        : FMM embedding                                 
  Dipayan Datta          : RHF DLPNO-CCSD density                        
  Achintya Kumar Dutta   : EOM-CC, STEOM-CC                              
  Nicolas Foglia         : Exact transition moments, OPA infrastructure, MCD improvements    
  Dmitry Ganyushin       : Spin-Orbit,Spin-Spin,Magnetic field MRCI      
  Miquel Garcia-Rates    : C-PCM and meta-GGA Hessian, CCSD/C-PCM, Gaussian charge scheme 
  Tiago L. C. Gouveia    : GS-ROHF, GS-ROCIS                             
  Yang Guo               : DLPNO-NEVPT2, F12-NEVPT2, CIM, IAO-localization        
  Andreas Hansen         : Spin unrestricted coupled pair/coupled cluster methods 
  Ingolf Harden          : AUTO-CI MPn and infrastructure                
  Benjamin Helmich-Paris : MC-RPA, TRAH-(SCF,CASSCF), AVAS, COSX integrals, SCF dyn. polar., MC-PDFT, srDFT 
  Lee Huntington         : MR-EOM, pCC                                   
  Robert Izsak           : Overlap fitted RIJCOSX, COSX-SCS-MP3, EOM     
  Riya Kayal             : Wick's Theorem for AUTO-CI, AUTO-CI UHF-CCSDT 
  Emily Kempfer          : AUTO-CI RHF CISDT and CCSDT, approximate NEVPT4
  Christian Kollmar      : KDIIS, OOCD, Brueckner-CCSD(T), CCSD density, CASPT2, CASPT2-K, improved NEVPT2 
  Axel Koslowski         : Symmetry handling                             
  Simone Kossmann        : meta-GGA functionals, TD-DFT gradient, OOMP2, (MP2 Hessian; deprecated post 5.0) 
  Lucas Lang             : DCDCAS, Hyperfine gauge corrections, ICE-SOC+SSC
  Marvin Lechner         : AUTO-CI (C++ implementation), FIC-MRCC        
  Spencer Leger          : CASSCF response                               
  Dagmar Lenk            : GEPOL surface, SMD, ORCA-2-JSON               
  Dimitrios Liakos       : Extrapolation schemes; Compound Job, Property file
  Dimitrios Manganas     : Further ROCIS development; embedding schemes. LFT, Crystal Embedding 
  Dimitrios Pantazis     : SARC Basis sets                               
  Anastasios Papadopoulos: AUTO-CI, single reference methods and gradients 
  Taras Petrenko         : pre 6.0 DFT Hessian and TD-DFT gradient,  ECA, NRVS 
  Petra Pikulova         : Analytic Raman intensities                    
  Peter Pinski           : DLPNO-MP2, DLPNO-MP2 Gradient                 
  Shashank Vittal Rao    : ES-AILFT, MagRelax                            
  Christoph Reimann      : Effective Core Potentials                     
  Marius Retegan         : Local ZFS, SOC                                
  Christoph Riplinger    : Optimizer, TS searches, QM/MM, DLPNO-CCSD(T), (RO)-DLPNO pert. Triples 
  Michael Roemelt        : Original ROCIS implementation, recursive CI coupling coefficients
  Masaaki Saitow         : Open-shell DLPNO-CCSD energy and density      
  Barbara Sandhoefer     : DKH picture change effects                    
  Yorick L. A. Schmerwitz: GMF and freeze-and-release deltaSCF, NEB S-IDPP initial path                    
  Kantharuban Sivalingam : CASSCF convergence/infrastructure, NEVPT2, NEVPT3, NEVPT4(SD), FIC-MRCI and CEPA variants
  Bernardo de Souza      : ESD, SOC TD-DFT                               
  Georgi L. Stoychev     : AutoAux, RI-MP2 NMR, DLPNO-MP2 response, X2C  
  Van Anh Tran           : RI-MP2 g-tensors                              
  Willem Van den Heuvel  : Paramagnetic NMR                              
  Zikuan Wang            : NOTCH, Electric field optimization            
  Frank Wennmohs         : Technical directorship and infrastructure     
  Hang Xu                : AUTO-CI-Response properties                   
                                                                         
[FACCTs GmbH]                                                            
  Markus Bursch, Nicolas Foglia, Miquel Garcia-Rates, Ingolf Harden, Hagen Neugebauer, Anastasios Papadopoulos, 
  Christoph Riplinger, Bernardo de Souza, Georgi L. Stoychev                                                    
                                                                 
  APM, various basis sets, CI-OPT, improved COSX, DLPNO-Multilevel,           
  DOCKER, DRACO, updates on ESD, Fragmentator, GOAT, IRC, LR-CPCM, L-BFGS, MBIS, meta-GGA TD-DFT gradient, ML-optimized integration grids, 
  MM, NACMEs, nearIR, NEB, NEB-TS, NL-DFT gradient (VV10), 2- and 3-layer-ONIOM, interface openCOSMO-RS, QMMM,   
  Crystal-QMMM, RESP, rigid body optimization, SF, symmetry and pop. for TD-DFT, various functionals, SOLVATOR                                   
                                                                         
[Other institutions]                                                     
  V. Asgeirsson          : NEB                                           
  Christoph Bannwarth    : sTDA-DFT, sTD-DFT, PBEh-3c, B97-3c, D3        
  Giovanni Bistoni       : ETS/NOCV, ADLD/ADEX, COVALED                  
  Martin Brehm           : Molecular dynamics                            
  Ronald Cardenas        : ETS/NOCV                                      
  Martina Colucci        : COVALED                                       
  Sebastian Ehlert       : rSCAN, r2SCAN, r2SCAN-3c, D4, dhf basis sets  
  Marvin Friede          : D4 for Fr, Ra, Ac-Lr                          
  Lars Goerigk           : TD-DFT with DH, B97 family of functionals     
  Stefan Grimme          : VdW corrections, initial TS optimization, DFT functionals, gCP, sTDA/sTD-DF 
  Waldemar Hujo          : DFT-NL                                        
  H. Jonsson             : NEB                                           
  Holger Kruse           : gCP                                           
  Marcel Mueller         : wB97X-3c, vDZP basis set                      
  Hagen Neugebauer       : wr2SCAN, Native XTB                           
  Gianluca Regni         : ADLD/ADEX                                     
  Tobias Risthaus        : pre 6.0 range-separated hybrid DFT and stability analysis
  Lukas Wittmann         : regularized MP2, r2SCAN double-hybrids, wr2SCAN        
                                                                         
We gratefully acknowledge several colleagues who have allowed us to      
interface, adapt or use parts of their codes:                            
  Ed Valeev, F. Pavosevic, A. Kumar             : LibInt (2-el integral package), F12 methods 
  Garnet Chan, S. Sharma, J. Yang, R. Olivares  : DMRG                   
  Ulf Ekstrom                                   : XCFun DFT Library      
  Mihaly Kallay                                 : mrcc  (arbitrary order and MRCC methods)
  Frank Weinhold                                : gennbo (NPA and NBO analysis)           
  Simon Mueller                                 : openCOSMO-RS                            
  Christopher J. Cramer and Donald G. Truhlar   : smd solvation model                     
  S Lehtola, MJT Oliveira, MAL Marques          : LibXC Library                           
  Liviu Ungur et al                             : ANISO software                          


 Your calculation uses the libint2 library for the computation of 2-el integrals
 For citations please refer to: http://libint.valeyev.net

 Your ORCA version has been built with support for libXC version: 7.0.0
 For citations please refer to: https://libxc.gitlab.io

 This ORCA versions uses:
   CBLAS   interface :  Fast vector & matrix operations
   LAPACKE interface :  Fast linear algebra routines
   SCALAPACK package :  Parallel linear algebra routines
   Shared memory     :  Shared parallel matrices
   BLAS/LAPACK       :  OpenBLAS 0.3.29  USE64BITINT DYNAMIC_ARCH NO_AFFINITY Cooperlake SINGLE_THREADED
        Core in use  :  Cooperlake
   Copyright (c) 2011-2014, The OpenBLAS Project


  ***********************************
  * Starting time: Wed Mar  4 13:44:39 2026
  * Host name:     c01b01n03
  * Process ID:    2179351
  * Working dir.:  /lustre1/jiangy/jiangy_liuxy/NMR/B9D7C2-SRSR-NMR/opt_conf
  ***********************************

NOTE: MaxCore=5000 MB was set to SCF,MP2,MDCI,CIPSI,MRCI,RASCI and CIS
      => If you want to overwrite this, your respective input block should be placed after the MaxCore statement


***************************************
The coordinates will be read from file: opt-conf-7.xyz
***************************************



Warning: The global flag for NMR shieldings has been found
         but shieldings for certain elements have also been explicitly requested in the EPRNMR block
         ==>> only the requested shieldings will be calculated

================================================================================

----- Orbital basis set information -----
Your calculation utilizes the basis: pcSseg-2
   F. Jensen, J. Chem. Theory Comput. 11, 132 (2015).

----- AuxJ basis set information -----
Your calculation utilizes the AutoAux generation procedure.
  G. L. Stoychev, A. A. Auer, F. Neese, J. Chem. Theory Comput. 13, 554 (2017)

----- AuxC basis set information -----
Your calculation utilizes the AutoAux generation procedure.
  G. L. Stoychev, A. A. Auer, F. Neese, J. Chem. Theory Comput. 13, 554 (2017)

----- AuxJK basis set information -----
Your calculation utilizes the AutoAux generation procedure.
  G. L. Stoychev, A. A. Auer, F. Neese, J. Chem. Theory Comput. 13, 554 (2017)

----- AuxX basis set information -----
Your calculation utilizes the AutoAux generation procedure.
  G. L. Stoychev, A. A. Auer, F. Neese, J. Chem. Theory Comput. 13, 554 (2017)

================================================================================
                                        WARNINGS
                       Please study these warnings very carefully!
================================================================================


================================================================================
                                       INPUT FILE
================================================================================
NAME = nmr-conf-7.inp
|  1> !TPSS PCSSEG-2 AUTOAUX NMR CPCM(Methanol)
|  2> 
|  3> %pal nprocs 60 end
|  4> %maxcore 5000
|  5> 
|  6> *XYZFILE 0 1 opt-conf-7.xyz
|  7> 
|  8> %EPRNMR
|  9>    NUCLEI = ALL C {SHIFT}
| 10>    NUCLEI = ALL H {SHIFT}
| 11>    TAU DOBSON
| 12> END
| 13> 
| 14> 
| 15>                          ****END OF INPUT****
================================================================================

                       ****************************
                       * Single Point Calculation *
                       ****************************

---------------------------------
CARTESIAN COORDINATES (ANGSTROEM)
---------------------------------
  C     20.968321  -30.030686    2.042699
  C     21.564957  -29.709843    0.819583
  C     20.858699  -29.940082   -0.365539
  C     19.594925  -30.524513   -0.323853
  C     19.003621  -30.840077    0.896533
  C     19.688226  -30.579516    2.079037
  C     17.646939  -31.495922    0.914517
  C     17.710720  -33.018637    0.657629
  C     16.381164  -33.608360    0.146883
  C     16.121633  -33.271304   -1.331732
  C     17.189852  -33.754997   -2.280526
  C     17.544955  -35.109783   -2.315685
  C     18.517052  -35.564129   -3.192892
  C     19.144750  -34.668906   -4.073897
  C     18.807210  -33.329976   -4.037881
  C     17.839391  -32.877850   -3.140500
  C     18.228184  -33.752487    1.895840
  C     15.184220  -33.209205    1.009758
  O     21.483621  -29.565191   -1.514366
  O     21.722352  -29.786841    3.148347
  O     22.783739  -29.078770    0.849406
  O     20.086726  -35.118547   -4.955081
  O     18.949594  -36.855386   -3.300549
  C     23.935886  -29.611219    0.177313
  C     24.389611  -30.959613    0.775337
  C     23.412668  -32.079181    0.522723
  C     24.963696  -28.492149    0.372797
  O     26.192867  -28.725709   -0.322193
  C     23.133756  -32.460161   -0.793569
  C     22.216280  -33.462201   -1.051820
  C     21.568114  -34.103727    0.014852
  C     21.864747  -33.753099    1.317472
  C     22.789158  -32.740975    1.568798
  C     21.191424  -30.158740    4.417053
  C     20.804924  -29.780939   -2.749236
  C     18.410707  -37.825709   -2.404156
  O     25.646482  -31.351241    0.204955
  O     18.483239  -35.138516    1.661589
  O     14.002171  -33.956425    0.697412
  O     21.853054  -33.909631   -2.285495
  O     20.646369  -35.085151   -0.239851
  C     22.538012  -33.383874   -3.422003
  H     19.058919  -30.729559   -1.238704
  H     19.226129  -30.824451    3.023554
  H     17.023833  -31.033771    0.146671
  H     17.158631  -31.305159    1.873924
  H     18.449832  -33.180324   -0.132284
  H     16.476657  -34.695964    0.229823
  H     16.008907  -32.190160   -1.447892
  H     15.160212  -33.711793   -1.609979
  H     17.054499  -35.807018   -1.651335
  H     19.307931  -32.643273   -4.708807
  H     17.590110  -31.824021   -3.117989
  H     17.494245  -33.711053    2.703574
  H     19.135950  -33.258937    2.253838
  H     15.424389  -33.324223    2.071393
  H     14.916785  -32.164356    0.841869
  H     20.204511  -36.070422   -4.816902
  H     23.731215  -29.736863   -0.887864
  H     24.497119  -30.819415    1.857822
  H     25.221032  -28.411560    1.430101
  H     24.513486  -27.549905    0.053234
  H     26.040709  -28.615169   -1.270240
  H     23.631323  -31.959269   -1.610447
  H     21.368670  -34.268205    2.129651
  H     23.003330  -32.454972    2.590468
  H     20.278470  -29.602341    4.643885
  H     20.982877  -31.230655    4.457986
  H     21.959550  -29.908349    5.144980
  H     21.483953  -29.436870   -3.525509
  H     20.582774  -30.839097   -2.899014
  H     19.875917  -29.207028   -2.792058
  H     18.612454  -37.549722   -1.366514
  H     17.333779  -37.936191   -2.550651
  H     18.910791  -38.761574   -2.640027
  H     26.163920  -30.545369    0.028605
  H     19.177859  -35.202488    0.985190
  H     14.185925  -34.889978    0.862201
  H     20.521503  -35.158233   -1.199282
  H     22.380233  -32.307593   -3.509505
  H     23.608700  -33.590502   -3.353376
  H     22.111723  -33.889412   -4.282636

----------------------------
CARTESIAN COORDINATES (A.U.)
----------------------------
  NO LB      ZA    FRAG     MASS         X           Y           Z
   0 C     6.0000    0    12.011   39.624385  -56.749771    3.860143
   1 C     6.0000    0    12.011   40.751862  -56.143466    1.548787
   2 C     6.0000    0    12.011   39.417228  -56.578554   -0.690769
   3 C     6.0000    0    12.011   37.029042  -57.682970   -0.611994
   4 C     6.0000    0    12.011   35.911639  -58.279300    1.694203
   5 C     6.0000    0    12.011   37.205356  -57.786910    3.928810
   6 C     6.0000    0    12.011   33.347882  -59.518666    1.728187
   7 C     6.0000    0    12.011   33.468411  -62.396182    1.242738
   8 C     6.0000    0    12.011   30.955914  -63.510596    0.277569
   9 C     6.0000    0    12.011   30.465472  -62.873653   -2.516609
  10 C     6.0000    0    12.011   32.484112  -63.787700   -4.309570
  11 C     6.0000    0    12.011   33.155161  -66.347874   -4.376011
  12 C     6.0000    0    12.011   34.992157  -67.206463   -6.033691
  13 C     6.0000    0    12.011   36.178334  -65.514738   -7.698549
  14 C     6.0000    0    12.011   35.540476  -62.984527   -7.630489
  15 C     6.0000    0    12.011   33.711563  -62.130132   -5.934684
  16 C     6.0000    0    12.011   34.446276  -63.782957    3.582619
  17 C     6.0000    0    12.011   28.694018  -62.756303    1.908167
  18 O     8.0000    0    15.999   40.598161  -55.870114   -2.861737
  19 O     8.0000    0    15.999   41.049295  -56.288972    5.949513
  20 O     8.0000    0    15.999   43.055026  -54.950911    1.605145
  21 O     8.0000    0    15.999   37.958412  -66.364436   -9.363745
  22 O     8.0000    0    15.999   35.809543  -69.646585   -6.237134
  23 C     6.0000    0    12.011   45.232270  -55.957094    0.335073
  24 C     6.0000    0    12.011   46.089685  -58.505189    1.465174
  25 C     6.0000    0    12.011   44.243530  -60.620867    0.987803
  26 C     6.0000    0    12.011   47.174549  -53.842358    0.704485
  27 O     8.0000    0    15.999   49.497345  -54.283723   -0.608857
  28 C     6.0000    0    12.011   43.716463  -61.340814   -1.499629
  29 C     6.0000    0    12.011   41.982685  -63.234396   -1.987652
  30 C     6.0000    0    12.011   40.757829  -64.446703    0.028066
  31 C     6.0000    0    12.011   41.318384  -63.784114    2.489662
  32 C     6.0000    0    12.011   43.065268  -61.871477    2.964599
  33 C     6.0000    0    12.011   40.045988  -56.991760    8.347020
  34 C     6.0000    0    12.011   39.315608  -56.277820   -5.195302
  35 C     6.0000    0    12.011   34.791195  -71.480231   -4.543197
  36 O     8.0000    0    15.999   48.464827  -59.245259    0.387310
  37 O     8.0000    0    15.999   34.928261  -66.402171    3.139948
  38 O     8.0000    0    15.999   26.460269  -64.168344    1.317918
  39 O     8.0000    0    15.999   41.296288  -64.079917   -4.318960
  40 O     8.0000    0    15.999   39.015983  -66.301328   -0.453253
  41 C     6.0000    0    12.011   42.590671  -63.086379   -6.466649
  42 H     1.0000    0     1.008   36.016137  -58.070452   -2.340812
  43 H     1.0000    0     1.008   36.332118  -58.249771    5.713690
  44 H     1.0000    0     1.008   32.170382  -58.645327    0.277168
  45 H     1.0000    0     1.008   32.425113  -59.158176    3.541203
  46 H     1.0000    0     1.008   34.865129  -62.701725   -0.249980
  47 H     1.0000    0     1.008   31.136368  -65.565870    0.434302
  48 H     1.0000    0     1.008   30.252449  -60.830587   -2.736120
  49 H     1.0000    0     1.008   28.648649  -63.706056   -3.042420
  50 H     1.0000    0     1.008   32.228332  -67.665458   -3.120571
  51 H     1.0000    0     1.008   36.486702  -61.686846   -8.898357
  52 H     1.0000    0     1.008   33.240491  -60.138685   -5.892145
  53 H     1.0000    0     1.008   33.059333  -63.704658    5.109014
  54 H     1.0000    0     1.008   36.161704  -62.850282    4.259136
  55 H     1.0000    0     1.008   29.147871  -62.973655    3.914366
  56 H     1.0000    0     1.008   28.188639  -60.781824    1.590903
  57 H     1.0000    0     1.008   38.180993  -68.163218   -9.102626
  58 H     1.0000    0     1.008   44.845498  -56.194526   -1.677820
  59 H     1.0000    0     1.008   46.292846  -58.240254    3.510774
  60 H     1.0000    0     1.008   47.660843  -53.690068    2.702498
  61 H     1.0000    0     1.008   46.323774  -52.061776    0.100598
  62 H     1.0000    0     1.008   49.209808  -54.074834   -2.400405
  63 H     1.0000    0     1.008   44.656729  -60.394266   -3.043303
  64 H     1.0000    0     1.008   40.380934  -64.757523    4.024456
  65 H     1.0000    0     1.008   43.469995  -61.331008    4.895275
  66 H     1.0000    0     1.008   38.320755  -55.940317    8.775670
  67 H     1.0000    0     1.008   39.651890  -59.017385    8.424373
  68 H     1.0000    0     1.008   41.497536  -56.518589    9.722603
  69 H     1.0000    0     1.008   40.598788  -55.627622   -6.662246
  70 H     1.0000    0     1.008   38.895806  -58.277447   -5.478342
  71 H     1.0000    0     1.008   37.560040  -55.193285   -5.276225
  72 H     1.0000    0     1.008   35.172440  -70.958691   -2.582337
  73 H     1.0000    0     1.008   32.756095  -71.689012   -4.820031
  74 H     1.0000    0     1.008   35.736215  -73.248760   -4.988928
  75 H     1.0000    0     1.008   49.442643  -57.722383    0.054055
  76 H     1.0000    0     1.008   36.240901  -66.523062    1.861739
  77 H     1.0000    0     1.008   26.807513  -65.932504    1.629323
  78 H     1.0000    0     1.008   38.780020  -66.439433   -2.266315
  79 H     1.0000    0     1.008   42.292510  -61.052502   -6.632003
  80 H     1.0000    0     1.008   44.613977  -63.476849   -6.336963
  81 H     1.0000    0     1.008   41.785100  -64.041707   -8.093010

--------------------------------
INTERNAL COORDINATES (ANGSTROEM)
--------------------------------
 C      0   0   0     0.000000000000     0.00000000     0.00000000
 C      1   0   0     1.398187714312     0.00000000     0.00000000
 C      2   1   0     1.398686376723   119.20745219     0.00000000
 C      3   2   1     1.392990064534   120.11988377   357.82795915
 C      4   3   2     1.392323591322   120.43850431     2.32120162
 C      5   4   3     1.391003578850   119.58117754   359.40802728
 C      5   4   3     1.506997539219   119.43421765   181.16438475
 C      7   5   4     1.545549405541   112.93179017    80.57186177
 C      8   7   5     1.541542183364   113.35197681   201.89407405
 C      9   8   7     1.538592646880   112.33894727    75.42345231
 C     10   9   8     1.508396392975   114.50570492    58.68974339
 C     11  10   9     1.400991782234   120.35635877    55.90833916
 C     12  11  10     1.385962715452   120.70842480   179.42436534
 C     13  12  11     1.404136014267   120.10970630   359.04162405
 C     14  13  12     1.381290440522   119.49904438     1.44054836
 C     11  10   9     1.389547686056   121.19163054   235.63378451
 C      8   7   5     1.529533315216   110.61616793    74.98627091
 C      9   8   7     1.528578596152   112.85737242   309.43510970
 O      3   2   1     1.360468674317   115.98880482   178.00109828
 O      1   2   3     1.360322466748   115.68011381   179.52536607
 O      2   1   3     1.372797008507   117.73153227   174.81687495
 O     14  13  12     1.366009532265   120.20868910   181.12059762
 O     13  12  11     1.366026269532   125.58053337   179.23915914
 C     21   2   1     1.436195061887   122.11546431   124.00181304
 C     24  21   2     1.543264143815   112.23696705   295.16752687
 C     25  24  21     1.507204480926   113.17247082    68.26775305
 C     24  21   2     1.531967616587   101.98692898   173.88631285
 O     27  24  21     1.431230822214   113.26730995   185.39218974
 C     26  25  24     1.398414149434   119.30180383    61.87369461
 C     29  26  25     1.382946010530   120.36393822   181.60107076
 C     30  29  26     1.403375753374   119.71563255   359.65840122
 C     31  30  29     1.381213176736   120.10532669   358.75663441
 C     26  25  24     1.386004539061   121.31707675   241.65646063
 C     20   1   2     1.424713459329   118.06201380   183.17285629
 C     19   3   2     1.425510639635   118.10580314   179.91847480
 C     23  13  12     1.426690705814   118.27974889   357.08579554
 O     25  24  21     1.434723844274   109.99872149   188.34977977
 O     17   8   7     1.428636236148   113.14994862   188.08724764
 O     18   9   8     1.432877391627   112.75213088   191.40369099
 O     30  29  26     1.361646704139   125.75001177   179.32694821
 O     31  30  29     1.370285769583   119.78884105   179.18017709
 C     40  30  29     1.427318979235   118.18807321     5.04078387
 H      4   3   2     1.079953391671   120.30426116   181.75653185
 H      6   5   4     1.079648481474   119.37737414   179.92769762
 H      7   5   4     1.091527362800   108.73910105   319.59014613
 H      7   5   4     1.093296532775   109.67137078   203.18147756
 H      8   7   5     1.093796296080   107.07104929   319.25412946
 H      9   8   7     1.094934058291   106.24087544   193.02218898
 H     10   9   8     1.093193623831   109.64321756   296.00657837
 H     10   9   8     1.093518272107   107.73361568   180.72705517
 H     12  11  10     1.080761956582   119.56462026   359.44783414
 H     15  14  13     1.082785974216   119.05117976   178.96475952
 H     16  11  10     1.083144547953   119.58530016     1.20955937
 H     17   8   7     1.092161489959   110.68067083    69.09952640
 H     17   8   7     1.093522821421   109.22776488   311.08541361
 H     18   9   8     1.094522067722   110.38162664   314.52473411
 H     18   9   8     1.091521134734   110.79289377    73.69818471
 H     22  14  13     0.969036649545   108.37094741   358.81042173
 H     24  21   2     1.091914945396   110.41379619    57.54867314
 H     25  24  21     1.096807547808   107.43240950   308.02357075
 H     27  24  21     1.091149054239   109.62256329    66.90740524
 H     27  24  21     1.092077551705   108.44139044   308.63270229
 H     28  27  24     0.966521352790   108.81062436    71.59153449
 H     29  26  25     1.079701017781   119.59366687     0.91585084
 H     32  31  30     1.082155341582   119.24388996   181.00714014
 H     33  26  25     1.082347900337   119.81760614   359.93348835
 H     34  20   1     1.092939812512   111.29773732   297.05344401
 H     34  20   1     1.092780227173   111.13242149    59.25576662
 H     34  20   1     1.087470231077   105.82818384   178.17216690
 H     35  19   3     1.087228035296   105.85812582   181.33599278
 H     35  19   3     1.091549587641   111.25258943   300.35993567
 H     35  19   3     1.092822760321   111.05112985    62.35961374
 H     36  23  13     1.092507484707   110.80494546   300.95620099
 H     36  23  13     1.092447874901   110.90876408    62.87615263
 H     36  23  13     1.086996668699   105.98886658   181.89746081
 H     37  25  24     0.973791896377   108.15544950    33.61707008
 H     38  17   8     0.971650138116   107.79719065    62.05552656
 H     39  18   9     0.965630541851   108.05778520    61.00397069
 H     41  31  30     0.970278778134   108.92376934   355.87501608
 H     42  40  30     1.091298378388   110.96185972   297.64111185
 H     42  40  30     1.092600907211   110.52351186    59.27204483
 H     42  40  30     1.085348141351   105.74372403   178.61654266

---------------------------
INTERNAL COORDINATES (A.U.)
---------------------------
 C      0   0   0     0.000000000000     0.00000000     0.00000000
 C      1   0   0     2.642191863863     0.00000000     0.00000000
 C      2   1   0     2.643134199253   119.20745219     0.00000000
 C      3   2   1     2.632369729242   120.11988377   357.82795915
 C      4   3   2     2.631110277396   120.43850431     2.32120162
 C      5   4   3     2.628615815331   119.58117754   359.40802728
 C      5   4   3     2.847812633618   119.43421765   181.16438475
 C      7   5   4     2.920665102918   112.93179017    80.57186177
 C      8   7   5     2.913092550446   113.35197681   201.89407405
 C      9   8   7     2.907518734269   112.33894727    75.42345231
 C     10   9   8     2.850456084117   114.50570492    58.68974339
 C     11  10   9     2.647490784297   120.35635877    55.90833916
 C     12  11  10     2.619089964030   120.70842480   179.42436534
 C     13  12  11     2.653432521740   120.10970630   359.04162405
 C     14  13  12     2.610260643990   119.49904438     1.44054836
 C     11  10   9     2.625864576670   121.19163054   235.63378451
 C      8   7   5     2.890399078466   110.61616793    74.98627091
 C      9   8   7     2.888594920900   112.85737242   309.43510970
 O      3   2   1     2.570913208238   115.98880482   178.00109828
 O      1   2   3     2.570636915973   115.68011381   179.52536607
 O      2   1   3     2.594210383545   117.73153227   174.81687495
 O     14  13  12     2.581383912307   120.20868910   181.12059762
 O     13  12  11     2.581415541158   125.58053337   179.23915914
 C     21   2   1     2.714015341857   122.11546431   124.00181304
 C     24  21   2     2.916346584111   112.23696705   295.16752687
 C     25  24  21     2.848203696769   113.17247082    68.26775305
 C     24  21   2     2.894999241385   101.98692898   173.88631285
 O     27  24  21     2.704634288412   113.26730995   185.39218974
 C     26  25  24     2.642619764230   119.30180383    61.87369461
 C     29  26  25     2.613389217901   120.36393822   181.60107076
 C     30  29  26     2.651995836862   119.71563255   359.65840122
 C     31  30  29     2.610114636594   120.10532669   358.75663441
 C     26  25  24     2.619168999197   121.31707675   241.65646063
 C     20   1   2     2.692318257444   118.06201380   183.17285629
 C     19   3   2     2.693824709902   118.10580314   179.91847480
 C     23  13  12     2.696054711800   118.27974889   357.08579554
 O     25  24  21     2.711235143484   109.99872149   188.34977977
 O     17   8   7     2.699731231316   113.14994862   188.08724764
 O     18   9   8     2.707745853662   112.75213088   191.40369099
 O     30  29  26     2.573139361979   125.75001177   179.32694821
 O     31  30  29     2.589464829722   119.78884105   179.18017709
 C     40  30  29     2.697241976503   118.18807321     5.04078387
 H      4   3   2     2.040816147658   120.30426116   181.75653185
 H      6   5   4     2.040239950890   119.37737414   179.92769762
 H      7   5   4     2.062687783373   108.73910105   319.59014613
 H      7   5   4     2.066031030111   109.67137078   203.18147756
 H      8   7   5     2.066975445888   107.07104929   319.25412946
 H      9   8   7     2.069125504873   106.24087544   193.02218898
 H     10   9   8     2.065836560389   109.64321756   296.00657837
 H     10   9   8     2.066450056721   107.73361568   180.72705517
 H     12  11  10     2.042344113901   119.56462026   359.44783414
 H     15  14  13     2.046168952920   119.05117976   178.96475952
 H     16  11  10     2.046846559080   119.58530016     1.20955937
 H     17   8   7     2.063886110038   110.68067083    69.09952640
 H     17   8   7     2.066458653679   109.22776488   311.08541361
 H     18   9   8     2.068346955528   110.38162664   314.52473411
 H     18   9   8     2.062676014034   110.79289377    73.69818471
 H     22  14  13     1.831213881373   108.37094741   358.81042173
 H     24  21   2     2.063420208334   110.41379619    57.54867314
 H     25  24  21     2.072665886976   107.43240950   308.02357075
 H     27  24  21     2.061972883800   109.62256329    66.90740524
 H     27  24  21     2.063727489726   108.44139044   308.63270229
 H     28  27  24     1.826460659360   108.81062436    71.59153449
 H     29  26  25     2.040339230123   119.59366687     0.91585084
 H     32  31  30     2.044977229951   119.24388996   181.00714014
 H     33  26  25     2.045341113262   119.81760614   359.93348835
 H     34  20   1     2.065356926506   111.29773732   297.05344401
 H     34  20   1     2.065055353921   111.13242149    59.25576662
 H     34  20   1     2.055020915527   105.82818384   178.17216690
 H     35  19   3     2.054563231831   105.85812582   181.33599278
 H     35  19   3     2.062729782236   111.25258943   300.35993567
 H     35  19   3     2.065135729922   111.05112985    62.35961374
 H     36  23  13     2.064539945356   110.80494546   300.95620099
 H     36  23  13     2.064427299148   110.90876408    62.87615263
 H     36  23  13     2.054126012326   105.98886658   181.89746081
 H     37  25  24     1.840199995585   108.15544950    33.61707008
 H     38  17   8     1.836152659025   107.79719065    62.05552656
 H     39  18   9     1.824777270649   108.05778520    61.00397069
 H     41  31  30     1.833561164230   108.92376934   355.87501608
 H     42  40  30     2.062255065545   110.96185972   297.64111185
 H     42  40  30     2.064716488303   110.52351186    59.27204483
 H     42  40  30     2.051010747114   105.74372403   178.61654266

---------------------
BASIS SET INFORMATION
---------------------
There are 3 groups of distinct atoms

 Group   1 Type C   : 11s7p2d1f contracted to 4s5p2d1f pattern {7211/31111/11/1}
 Group   2 Type O   : 11s7p2d1f contracted to 4s5p2d1f pattern {7211/31111/11/1}
 Group   3 Type H   : 6s3p1d contracted to 3s2p1d pattern {411/21/1}

Atom   0C    basis set group =>   1
Atom   1C    basis set group =>   1
Atom   2C    basis set group =>   1
Atom   3C    basis set group =>   1
Atom   4C    basis set group =>   1
Atom   5C    basis set group =>   1
Atom   6C    basis set group =>   1
Atom   7C    basis set group =>   1
Atom   8C    basis set group =>   1
Atom   9C    basis set group =>   1
Atom  10C    basis set group =>   1
Atom  11C    basis set group =>   1
Atom  12C    basis set group =>   1
Atom  13C    basis set group =>   1
Atom  14C    basis set group =>   1
Atom  15C    basis set group =>   1
Atom  16C    basis set group =>   1
Atom  17C    basis set group =>   1
Atom  18O    basis set group =>   2
Atom  19O    basis set group =>   2
Atom  20O    basis set group =>   2
Atom  21O    basis set group =>   2
Atom  22O    basis set group =>   2
Atom  23C    basis set group =>   1
Atom  24C    basis set group =>   1
Atom  25C    basis set group =>   1
Atom  26C    basis set group =>   1
Atom  27O    basis set group =>   2
Atom  28C    basis set group =>   1
Atom  29C    basis set group =>   1
Atom  30C    basis set group =>   1
Atom  31C    basis set group =>   1
Atom  32C    basis set group =>   1
Atom  33C    basis set group =>   1
Atom  34C    basis set group =>   1
Atom  35C    basis set group =>   1
Atom  36O    basis set group =>   2
Atom  37O    basis set group =>   2
Atom  38O    basis set group =>   2
Atom  39O    basis set group =>   2
Atom  40O    basis set group =>   2
Atom  41C    basis set group =>   1
Atom  42H    basis set group =>   3
Atom  43H    basis set group =>   3
Atom  44H    basis set group =>   3
Atom  45H    basis set group =>   3
Atom  46H    basis set group =>   3
Atom  47H    basis set group =>   3
Atom  48H    basis set group =>   3
Atom  49H    basis set group =>   3
Atom  50H    basis set group =>   3
Atom  51H    basis set group =>   3
Atom  52H    basis set group =>   3
Atom  53H    basis set group =>   3
Atom  54H    basis set group =>   3
Atom  55H    basis set group =>   3
Atom  56H    basis set group =>   3
Atom  57H    basis set group =>   3
Atom  58H    basis set group =>   3
Atom  59H    basis set group =>   3
Atom  60H    basis set group =>   3
Atom  61H    basis set group =>   3
Atom  62H    basis set group =>   3
Atom  63H    basis set group =>   3
Atom  64H    basis set group =>   3
Atom  65H    basis set group =>   3
Atom  66H    basis set group =>   3
Atom  67H    basis set group =>   3
Atom  68H    basis set group =>   3
Atom  69H    basis set group =>   3
Atom  70H    basis set group =>   3
Atom  71H    basis set group =>   3
Atom  72H    basis set group =>   3
Atom  73H    basis set group =>   3
Atom  74H    basis set group =>   3
Atom  75H    basis set group =>   3
Atom  76H    basis set group =>   3
Atom  77H    basis set group =>   3
Atom  78H    basis set group =>   3
Atom  79H    basis set group =>   3
Atom  80H    basis set group =>   3
Atom  81H    basis set group =>   3
---------------------------------
AUXILIARY/J BASIS SET INFORMATION
---------------------------------
There are 3 groups of distinct atoms

 Group   1 Type C   : 15s13p12d5f5g contracted to 15s13p12d5f5g pattern {111111111111111/1111111111111/111111111111/11111/11111}
 Group   2 Type O   : 15s13p12d5f5g contracted to 15s13p12d5f5g pattern {111111111111111/1111111111111/111111111111/11111/11111}
 Group   3 Type H   : 12s4p3d2f contracted to 12s4p3d2f pattern {111111111111/1111/111/11}

Atom   0C    basis set group =>   1
Atom   1C    basis set group =>   1
Atom   2C    basis set group =>   1
Atom   3C    basis set group =>   1
Atom   4C    basis set group =>   1
Atom   5C    basis set group =>   1
Atom   6C    basis set group =>   1
Atom   7C    basis set group =>   1
Atom   8C    basis set group =>   1
Atom   9C    basis set group =>   1
Atom  10C    basis set group =>   1
Atom  11C    basis set group =>   1
Atom  12C    basis set group =>   1
Atom  13C    basis set group =>   1
Atom  14C    basis set group =>   1
Atom  15C    basis set group =>   1
Atom  16C    basis set group =>   1
Atom  17C    basis set group =>   1
Atom  18O    basis set group =>   2
Atom  19O    basis set group =>   2
Atom  20O    basis set group =>   2
Atom  21O    basis set group =>   2
Atom  22O    basis set group =>   2
Atom  23C    basis set group =>   1
Atom  24C    basis set group =>   1
Atom  25C    basis set group =>   1
Atom  26C    basis set group =>   1
Atom  27O    basis set group =>   2
Atom  28C    basis set group =>   1
Atom  29C    basis set group =>   1
Atom  30C    basis set group =>   1
Atom  31C    basis set group =>   1
Atom  32C    basis set group =>   1
Atom  33C    basis set group =>   1
Atom  34C    basis set group =>   1
Atom  35C    basis set group =>   1
Atom  36O    basis set group =>   2
Atom  37O    basis set group =>   2
Atom  38O    basis set group =>   2
Atom  39O    basis set group =>   2
Atom  40O    basis set group =>   2
Atom  41C    basis set group =>   1
Atom  42H    basis set group =>   3
Atom  43H    basis set group =>   3
Atom  44H    basis set group =>   3
Atom  45H    basis set group =>   3
Atom  46H    basis set group =>   3
Atom  47H    basis set group =>   3
Atom  48H    basis set group =>   3
Atom  49H    basis set group =>   3
Atom  50H    basis set group =>   3
Atom  51H    basis set group =>   3
Atom  52H    basis set group =>   3
Atom  53H    basis set group =>   3
Atom  54H    basis set group =>   3
Atom  55H    basis set group =>   3
Atom  56H    basis set group =>   3
Atom  57H    basis set group =>   3
Atom  58H    basis set group =>   3
Atom  59H    basis set group =>   3
Atom  60H    basis set group =>   3
Atom  61H    basis set group =>   3
Atom  62H    basis set group =>   3
Atom  63H    basis set group =>   3
Atom  64H    basis set group =>   3
Atom  65H    basis set group =>   3
Atom  66H    basis set group =>   3
Atom  67H    basis set group =>   3
Atom  68H    basis set group =>   3
Atom  69H    basis set group =>   3
Atom  70H    basis set group =>   3
Atom  71H    basis set group =>   3
Atom  72H    basis set group =>   3
Atom  73H    basis set group =>   3
Atom  74H    basis set group =>   3
Atom  75H    basis set group =>   3
Atom  76H    basis set group =>   3
Atom  77H    basis set group =>   3
Atom  78H    basis set group =>   3
Atom  79H    basis set group =>   3
Atom  80H    basis set group =>   3
Atom  81H    basis set group =>   3
---------------------------------
AUXILIARY/C BASIS SET INFORMATION
---------------------------------
There are 3 groups of distinct atoms

 Group   1 Type C   : 15s13p12d5f5g contracted to 15s13p12d5f5g pattern {111111111111111/1111111111111/111111111111/11111/11111}
 Group   2 Type O   : 15s13p12d5f5g contracted to 15s13p12d5f5g pattern {111111111111111/1111111111111/111111111111/11111/11111}
 Group   3 Type H   : 12s4p3d2f contracted to 12s4p3d2f pattern {111111111111/1111/111/11}

Atom   0C    basis set group =>   1
Atom   1C    basis set group =>   1
Atom   2C    basis set group =>   1
Atom   3C    basis set group =>   1
Atom   4C    basis set group =>   1
Atom   5C    basis set group =>   1
Atom   6C    basis set group =>   1
Atom   7C    basis set group =>   1
Atom   8C    basis set group =>   1
Atom   9C    basis set group =>   1
Atom  10C    basis set group =>   1
Atom  11C    basis set group =>   1
Atom  12C    basis set group =>   1
Atom  13C    basis set group =>   1
Atom  14C    basis set group =>   1
Atom  15C    basis set group =>   1
Atom  16C    basis set group =>   1
Atom  17C    basis set group =>   1
Atom  18O    basis set group =>   2
Atom  19O    basis set group =>   2
Atom  20O    basis set group =>   2
Atom  21O    basis set group =>   2
Atom  22O    basis set group =>   2
Atom  23C    basis set group =>   1
Atom  24C    basis set group =>   1
Atom  25C    basis set group =>   1
Atom  26C    basis set group =>   1
Atom  27O    basis set group =>   2
Atom  28C    basis set group =>   1
Atom  29C    basis set group =>   1
Atom  30C    basis set group =>   1
Atom  31C    basis set group =>   1
Atom  32C    basis set group =>   1
Atom  33C    basis set group =>   1
Atom  34C    basis set group =>   1
Atom  35C    basis set group =>   1
Atom  36O    basis set group =>   2
Atom  37O    basis set group =>   2
Atom  38O    basis set group =>   2
Atom  39O    basis set group =>   2
Atom  40O    basis set group =>   2
Atom  41C    basis set group =>   1
Atom  42H    basis set group =>   3
Atom  43H    basis set group =>   3
Atom  44H    basis set group =>   3
Atom  45H    basis set group =>   3
Atom  46H    basis set group =>   3
Atom  47H    basis set group =>   3
Atom  48H    basis set group =>   3
Atom  49H    basis set group =>   3
Atom  50H    basis set group =>   3
Atom  51H    basis set group =>   3
Atom  52H    basis set group =>   3
Atom  53H    basis set group =>   3
Atom  54H    basis set group =>   3
Atom  55H    basis set group =>   3
Atom  56H    basis set group =>   3
Atom  57H    basis set group =>   3
Atom  58H    basis set group =>   3
Atom  59H    basis set group =>   3
Atom  60H    basis set group =>   3
Atom  61H    basis set group =>   3
Atom  62H    basis set group =>   3
Atom  63H    basis set group =>   3
Atom  64H    basis set group =>   3
Atom  65H    basis set group =>   3
Atom  66H    basis set group =>   3
Atom  67H    basis set group =>   3
Atom  68H    basis set group =>   3
Atom  69H    basis set group =>   3
Atom  70H    basis set group =>   3
Atom  71H    basis set group =>   3
Atom  72H    basis set group =>   3
Atom  73H    basis set group =>   3
Atom  74H    basis set group =>   3
Atom  75H    basis set group =>   3
Atom  76H    basis set group =>   3
Atom  77H    basis set group =>   3
Atom  78H    basis set group =>   3
Atom  79H    basis set group =>   3
Atom  80H    basis set group =>   3
Atom  81H    basis set group =>   3
----------------------------------
AUXILIARY/JK BASIS SET INFORMATION
----------------------------------
There are 3 groups of distinct atoms

 Group   1 Type C   : 15s13p12d5f5g contracted to 15s13p12d5f5g pattern {111111111111111/1111111111111/111111111111/11111/11111}
 Group   2 Type O   : 15s13p12d5f5g contracted to 15s13p12d5f5g pattern {111111111111111/1111111111111/111111111111/11111/11111}
 Group   3 Type H   : 12s4p3d2f contracted to 12s4p3d2f pattern {111111111111/1111/111/11}

Atom   0C    basis set group =>   1
Atom   1C    basis set group =>   1
Atom   2C    basis set group =>   1
Atom   3C    basis set group =>   1
Atom   4C    basis set group =>   1
Atom   5C    basis set group =>   1
Atom   6C    basis set group =>   1
Atom   7C    basis set group =>   1
Atom   8C    basis set group =>   1
Atom   9C    basis set group =>   1
Atom  10C    basis set group =>   1
Atom  11C    basis set group =>   1
Atom  12C    basis set group =>   1
Atom  13C    basis set group =>   1
Atom  14C    basis set group =>   1
Atom  15C    basis set group =>   1
Atom  16C    basis set group =>   1
Atom  17C    basis set group =>   1
Atom  18O    basis set group =>   2
Atom  19O    basis set group =>   2
Atom  20O    basis set group =>   2
Atom  21O    basis set group =>   2
Atom  22O    basis set group =>   2
Atom  23C    basis set group =>   1
Atom  24C    basis set group =>   1
Atom  25C    basis set group =>   1
Atom  26C    basis set group =>   1
Atom  27O    basis set group =>   2
Atom  28C    basis set group =>   1
Atom  29C    basis set group =>   1
Atom  30C    basis set group =>   1
Atom  31C    basis set group =>   1
Atom  32C    basis set group =>   1
Atom  33C    basis set group =>   1
Atom  34C    basis set group =>   1
Atom  35C    basis set group =>   1
Atom  36O    basis set group =>   2
Atom  37O    basis set group =>   2
Atom  38O    basis set group =>   2
Atom  39O    basis set group =>   2
Atom  40O    basis set group =>   2
Atom  41C    basis set group =>   1
Atom  42H    basis set group =>   3
Atom  43H    basis set group =>   3
Atom  44H    basis set group =>   3
Atom  45H    basis set group =>   3
Atom  46H    basis set group =>   3
Atom  47H    basis set group =>   3
Atom  48H    basis set group =>   3
Atom  49H    basis set group =>   3
Atom  50H    basis set group =>   3
Atom  51H    basis set group =>   3
Atom  52H    basis set group =>   3
Atom  53H    basis set group =>   3
Atom  54H    basis set group =>   3
Atom  55H    basis set group =>   3
Atom  56H    basis set group =>   3
Atom  57H    basis set group =>   3
Atom  58H    basis set group =>   3
Atom  59H    basis set group =>   3
Atom  60H    basis set group =>   3
Atom  61H    basis set group =>   3
Atom  62H    basis set group =>   3
Atom  63H    basis set group =>   3
Atom  64H    basis set group =>   3
Atom  65H    basis set group =>   3
Atom  66H    basis set group =>   3
Atom  67H    basis set group =>   3
Atom  68H    basis set group =>   3
Atom  69H    basis set group =>   3
Atom  70H    basis set group =>   3
Atom  71H    basis set group =>   3
Atom  72H    basis set group =>   3
Atom  73H    basis set group =>   3
Atom  74H    basis set group =>   3
Atom  75H    basis set group =>   3
Atom  76H    basis set group =>   3
Atom  77H    basis set group =>   3
Atom  78H    basis set group =>   3
Atom  79H    basis set group =>   3
Atom  80H    basis set group =>   3
Atom  81H    basis set group =>   3
---------------------------------
AUXILIARY/X BASIS SET INFORMATION
---------------------------------
There are 3 groups of distinct atoms

 Group   1 Type C   : 15s13p12d5f5g contracted to 15s13p12d5f5g pattern {111111111111111/1111111111111/111111111111/11111/11111}
 Group   2 Type O   : 15s13p12d5f5g contracted to 15s13p12d5f5g pattern {111111111111111/1111111111111/111111111111/11111/11111}
 Group   3 Type H   : 12s4p3d2f contracted to 12s4p3d2f pattern {111111111111/1111/111/11}

Atom   0C    basis set group =>   1
Atom   1C    basis set group =>   1
Atom   2C    basis set group =>   1
Atom   3C    basis set group =>   1
Atom   4C    basis set group =>   1
Atom   5C    basis set group =>   1
Atom   6C    basis set group =>   1
Atom   7C    basis set group =>   1
Atom   8C    basis set group =>   1
Atom   9C    basis set group =>   1
Atom  10C    basis set group =>   1
Atom  11C    basis set group =>   1
Atom  12C    basis set group =>   1
Atom  13C    basis set group =>   1
Atom  14C    basis set group =>   1
Atom  15C    basis set group =>   1
Atom  16C    basis set group =>   1
Atom  17C    basis set group =>   1
Atom  18O    basis set group =>   2
Atom  19O    basis set group =>   2
Atom  20O    basis set group =>   2
Atom  21O    basis set group =>   2
Atom  22O    basis set group =>   2
Atom  23C    basis set group =>   1
Atom  24C    basis set group =>   1
Atom  25C    basis set group =>   1
Atom  26C    basis set group =>   1
Atom  27O    basis set group =>   2
Atom  28C    basis set group =>   1
Atom  29C    basis set group =>   1
Atom  30C    basis set group =>   1
Atom  31C    basis set group =>   1
Atom  32C    basis set group =>   1
Atom  33C    basis set group =>   1
Atom  34C    basis set group =>   1
Atom  35C    basis set group =>   1
Atom  36O    basis set group =>   2
Atom  37O    basis set group =>   2
Atom  38O    basis set group =>   2
Atom  39O    basis set group =>   2
Atom  40O    basis set group =>   2
Atom  41C    basis set group =>   1
Atom  42H    basis set group =>   3
Atom  43H    basis set group =>   3
Atom  44H    basis set group =>   3
Atom  45H    basis set group =>   3
Atom  46H    basis set group =>   3
Atom  47H    basis set group =>   3
Atom  48H    basis set group =>   3
Atom  49H    basis set group =>   3
Atom  50H    basis set group =>   3
Atom  51H    basis set group =>   3
Atom  52H    basis set group =>   3
Atom  53H    basis set group =>   3
Atom  54H    basis set group =>   3
Atom  55H    basis set group =>   3
Atom  56H    basis set group =>   3
Atom  57H    basis set group =>   3
Atom  58H    basis set group =>   3
Atom  59H    basis set group =>   3
Atom  60H    basis set group =>   3
Atom  61H    basis set group =>   3
Atom  62H    basis set group =>   3
Atom  63H    basis set group =>   3
Atom  64H    basis set group =>   3
Atom  65H    basis set group =>   3
Atom  66H    basis set group =>   3
Atom  67H    basis set group =>   3
Atom  68H    basis set group =>   3
Atom  69H    basis set group =>   3
Atom  70H    basis set group =>   3
Atom  71H    basis set group =>   3
Atom  72H    basis set group =>   3
Atom  73H    basis set group =>   3
Atom  74H    basis set group =>   3
Atom  75H    basis set group =>   3
Atom  76H    basis set group =>   3
Atom  77H    basis set group =>   3
Atom  78H    basis set group =>   3
Atom  79H    basis set group =>   3
Atom  80H    basis set group =>   3
Atom  81H    basis set group =>   3
--------------------------------------------------------------------------
WARNING: There is at least one non-excluded one OpenFabrics device found,
but there are no active ports detected (or Open MPI was unable to use
them).  This is most certainly not what you wanted.  Check your
cables, subnet manager configuration, etc.  The openib BTL will be
ignored for this job.

  Local host: c01b01n03
--------------------------------------------------------------------------
--------------------------------------------------------------------------
WARNING: There was an error initializing an OpenFabrics device.

  Local host:   c01b01n03
  Local device: mlx5_0
--------------------------------------------------------------------------
[c01b01n03:2179360] 9 more processes have sent help message help-mpi-btl-openib.txt / no active ports found
[c01b01n03:2179360] Set MCA parameter "orte_base_help_aggregate" to 0 to see all help / error messages
[c01b01n03:2179360] 49 more processes have sent help message help-mpi-btl-openib.txt / error in device init


           ************************************************************
           *        Program running with 60 parallel MPI-processes    *
           *              working on a common directory               *
           ************************************************************
------------------------------------------------------------------------------
                             ORCA STARTUP CALCULATIONS
                           -- RI-GTO INTEGRALS CHOSEN --
------------------------------------------------------------------------------
------------------------------------------------------------------------------
                   ___                                                        
                  /   \      - P O W E R E D   B Y -                         
                 /     \                                                     
                 |  |  |   _    _      __       _____    __    __             
                 |  |  |  | |  | |    /  \     |  _  \  |  |  /  |          
                  \  \/   | |  | |   /    \    | | | |  |  | /  /          
                 / \  \   | |__| |  /  /\  \   | |_| |  |  |/  /          
                |  |  |   |  __  | /  /__\  \  |    /   |      \           
                |  |  |   | |  | | |   __   |  |    \   |  |\   \          
                \     /   | |  | | |  |  |  |  | |\  \  |  | \   \       
                 \___/    |_|  |_| |__|  |__|  |_| \__\ |__|  \__/        
                                                                              
                      - O R C A' S   B I G   F R I E N D -                    
                                      &                                       
                       - I N T E G R A L  F E E D E R -                       
                                                                              
 v1 FN, 2020, v2 2021, v3 2022-2024                                           
------------------------------------------------------------------------------


----------------------
SHARK INTEGRAL PACKAGE
----------------------

Number of atoms                             ...     82
Number of basis functions                   ...   2072
Number of shells                            ...    744
Maximum angular momentum                    ...      3
Integral batch strategy                     ... SHARK/LIBINT Hybrid
RI-J (if used) integral strategy            ... SPLIT-RIJ (Revised 2003 algorithm where possible)
Printlevel                                  ...      1
Contraction scheme used                     ... SEGMENTED contraction
Prescreening option                         ... SCHWARTZ
   Thresh                                   ... 1.000e-10
   Tcut                                     ... 1.000e-11
   Tpresel                                  ... 1.000e-11 
Coulomb Range Separation                    ... NOT USED
Exchange Range Separation                   ... NOT USED
Multipole approximations                    ... NOT USED
Finite Nucleus Model                        ... NOT USED
CABS basis                                  ... NOT available
Auxiliary Coulomb fitting basis             ... AVAILABLE
   # of basis functions in Aux-J            ...  10268
   # of shells in Aux-J                     ...   2940
   Maximum angular momentum in Aux-J        ...      4
Auxiliary J/K fitting basis                 ... AVAILABLE
   # of basis functions in Aux-JK           ...  10268
   # of shells in Aux-JK                    ...   2940
   Maximum angular momentum in Aux-JK       ...      4
Auxiliary Correlation fitting basis         ... AVAILABLE
   # of basis functions in Aux-C            ...  10268
   # of shells in Aux-C                     ...   2940
   Maximum angular momentum in Aux-C        ...      4
Auxiliary 'external' fitting basis          ... NOT available

Checking pre-screening integrals            ... done (  0.0 sec) Dimension = 744
   => SHARK Basis and OBASIS are compatible. Storing Pre-screening
Shell pair information
Shell pair cut-off parameter TPreSel        ...   1.0e-11
Total number of shell pairs                 ...    277140
Shell pairs after pre-screening             ...    149555
Total number of primitive shell pairs       ...    823733
Primitive shell pairs kept                  ...    273776
          la=0 lb=0:  28456 shell pairs
          la=1 lb=0:  49724 shell pairs
          la=1 lb=1:  20333 shell pairs
          la=2 lb=0:  19592 shell pairs
          la=2 lb=1:  14827 shell pairs
          la=2 lb=2:   2641 shell pairs
          la=3 lb=0:   6769 shell pairs
          la=3 lb=1:   5093 shell pairs
          la=3 lb=2:   1789 shell pairs
          la=3 lb=3:    331 shell pairs

Checking whether 4 symmetric matrices of dimension 2072 fit in memory
:Max Core in MB      =   5000.00
 MB in use           =    184.79
 MB left             =   4815.21
 MB needed           =     65.54
 Data fit in memory  = YES
Calculating RI/J V-Matrix + Cholesky decomp.... done (  6.2 sec)
Calculating RI/JK V-Matrix + Cholesky decomp.... done (  4.1 sec)
Calculating RI/C V-Matrix + Cholesky decomp.... done (  4.2 sec)
Calculating Nuclear repulsion               ... done (  0.1 sec) ENN=   5678.071074928864 Eh

Diagonalization of the overlap matrix:
Smallest eigenvalue                        ... 7.369e-06
Time for diagonalization                   ...    5.722 sec
Threshold for overlap eigenvalues          ... 1.000e-07
Number of eigenvalues below threshold      ... 0
Time for construction of square roots      ...    0.327 sec
Total time needed                          ...    6.099 sec

-------------------
DFT GRID GENERATION
-------------------

General Integration Accuracy     IntAcc      ... 4.388
Radial Grid Type                 RadialGrid  ... OptM3 with GC (2021)
Angular Grid (max. ang.)         AngularGrid ... 4 (Lebedev-302)
Angular grid pruning method      GridPruning ... 4 (adaptive)
Weight generation scheme         WeightScheme... mBecke (2022)
Basis function cutoff            BFCut       ... 1.0000e-10
Integration weight cutoff        WCut        ... 1.0000e-14
Partially contracted basis set               ... off
Rotationally invariant grid construction     ... off
Angular grids for H and He will be reduced by one unit
Diffuse basis detected: some atoms will have their outermost
                        angular grid increased by 1.

Total number of grid points                  ...   376914
Total number of batches                      ...     5930
Average number of points per batch           ...       63
Average number of grid points per atom       ...     4597
Grids setup in   2.3 sec
Initializing property integral containers    ... done (  0.1 sec)

SHARK setup successfully completed in  32.3 seconds

Maximum memory used throughout the entire STARTUP-calculation: 256.8 MB
--------------------------------------------------------------------------
WARNING: There was an error initializing an OpenFabrics device.

  Local host:   c01b01n03
  Local device: mlx5_0
--------------------------------------------------------------------------
--------------------------------------------------------------------------
WARNING: There is at least one non-excluded one OpenFabrics device found,
but there are no active ports detected (or Open MPI was unable to use
them).  This is most certainly not what you wanted.  Check your
cables, subnet manager configuration, etc.  The openib BTL will be
ignored for this job.

  Local host: c01b01n03
--------------------------------------------------------------------------


           ************************************************************
           *        Program running with 60 parallel MPI-processes    *
           *              working on a common directory               *
           ************************************************************
-------------------------------------------------------------------------------
                                 ORCA GUESS
                   Start orbitals & Density for SCF / CASSCF
-------------------------------------------------------------------------------

------------
SCF SETTINGS
------------
Hamiltonian:
 Density Functional     Method          .... DFT(GTOs)
 Exchange Functional    Exchange        .... TPSS
 Correlation Functional Correlation     .... TPSS
 LDA part of GGA corr.  LDAOpt          .... PW91-LDA
 Gradients option       PostSCFGGA      .... off
   NL short-range parameter             ....  5.000000
 RI-approximation to the Coulomb term is turned on
   Number of AuxJ basis functions       .... 10268


General Settings:
 Integral files         IntName         .... nmr-conf-7
 Hartree-Fock type      HFTyp           .... RHF
 Total Charge           Charge          ....    0
 Multiplicity           Mult            ....    1
 Number of Electrons    NEL             ....  314
 Basis Dimension        Dim             .... 2072
 Nuclear Repulsion      ENuc            ....   5678.0710749289 Eh

Convergence Acceleration:
 AO-DIIS                CNVDIIS         .... on
   Start iteration      DIISMaxIt       ....    12
   Startup error        DIISStart       ....  0.200000
   # of expansion vecs  DIISMaxEq       ....     5
   Bias factor          DIISBfac        ....   1.050
   Max. coefficient     DIISMaxC        ....  10.000
 MO-DIIS                CNVKDIIS        .... off
 Trust-Rad. Augm. Hess. CNVTRAH         .... auto
   Auto Start mean grad. ratio tolernc. ....  1.125000
   Auto Start start iteration           ....    50
   Auto Start num. interpolation iter.  ....    10
   Max. Number of Micro iterations      ....    24
   Max. Number of Macro iterations      .... Maxiter - #DIIS iter
   Number of Davidson start vectors     ....     2
   Converg. threshold    (grad. norm)   ....   5.000e-05
   Grad. Scal. Fac. for Micro threshold ....   0.100
   Minimum threshold for Micro iter.    ....   1.000e-02
   NR start threshold (gradient norm)   ....   1.000e-04
   Initial trust radius                 ....   0.400
   Minimum AH scaling param. (alpha)    ....   1.000
   Maximum AH scaling param. (alpha)    .... 1000.000
   Quad. conv. algorithm                .... NR
   White noise on init. David. guess    .... on
   Maximum white noise                  ....   0.010
   Pseudo random numbers                .... off
   Inactive MOs                         .... canonical
   Orbital update algorithm             .... Taylor
   Preconditioner                       .... Diag
   Full preconditioner red. dimension   ....   250
 SOSCF                 CNVSOSCF           .... on
   Start iteration     SOSCFMaxIt         ....   150
   Startup grad/error  SOSCFStart         ....  0.003300
   Hessian update      SOSCFHessUp        .... L-BFGS
   Autom. constraints  SOSCFAutoConstrain .... off
 Level Shifting         CNVShift        .... on
   Level shift para.    LevelShift      ....    0.2500
   Turn off err/grad.   ShiftErr        ....    0.0010
 Zerner damping         CNVZerner       .... off
 Static damping         CNVDamp         .... on
   Fraction old density DampFac         ....    0.7000
   Max. Damping (<1)    DampMax         ....    0.9800
   Min. Damping (>=0)   DampMin         ....    0.0000
   Turn off err/grad.   DampErr         ....    0.1000

SCF Procedure:
 Maximum # iterations   MaxIter         ....   125
 SCF integral mode      SCFMode         .... Direct
   Integral package                     .... SHARK and LIBINT hybrid scheme
 Reset frequency        DirectResetFreq ....    20
 Integral Threshold     Thresh          ....  1.000e-10 Eh
 Primitive CutOff       TCut            ....  1.000e-11 Eh

Convergence Tolerance:
 Convergence Check Mode ConvCheckMode   .... Total+1el-Energy
 Convergence forced     ConvForced      .... 0
 Energy Change          TolE            ....  1.000e-06 Eh
 1-El. energy change                    ....  1.000e-03 Eh
 Orbital Gradient       TolG            ....  5.000e-05
 Orbital Rotation angle TolX            ....  5.000e-05
 DIIS Error             TolErr          ....  1.000e-06

------------------------------
INITIAL GUESS: MODEL POTENTIAL
------------------------------
Loading Hartree-Fock densities                     ... done
Calculating cut-offs                               ... done
Initializing the effective Hamiltonian             ... done
Setting up the integral package (SHARK)            ... done
Starting the Coulomb interaction                   ... done (   2.0 sec)
Making the grid                                    ... [c01b01n03:2179761] 49 more processes have sent help message help-mpi-btl-openib.txt / error in device init
[c01b01n03:2179761] Set MCA parameter "orte_base_help_aggregate" to 0 to see all help / error messages
[c01b01n03:2179761] 9 more processes have sent help message help-mpi-btl-openib.txt / no active ports found
done (   1.0 sec)
Mapping shells                                     ... done
Starting the XC term evaluation                    ... done (   0.2 sec)
  promolecular density results
     # of electrons  =    313.996906834
     EX              =   -260.294457514
     EC              =    -10.635519202
     EX+EC           =   -270.929976717
Transforming the Hamiltonian                       ... done (   0.3 sec)
Diagonalizing the Hamiltonian                      ... done (   0.6 sec)
Back transforming the eigenvectors                 ... done (   0.2 sec)
Now organizing SCF variables                       ... done
                      ------------------
                      INITIAL GUESS DONE (   5.2 sec)
                      ------------------
             **** ENERGY FILE WAS UPDATED (nmr-conf-7.en.tmp) ****
Finished Guess after   9.7 sec
Maximum memory used throughout the entire GUESS-calculation: 288.3 MB
--------------------------------------------------------------------------
WARNING: There was an error initializing an OpenFabrics device.

  Local host:   c01b01n03
  Local device: mlx5_0
--------------------------------------------------------------------------
--------------------------------------------------------------------------
WARNING: There is at least one non-excluded one OpenFabrics device found,
but there are no active ports detected (or Open MPI was unable to use
them).  This is most certainly not what you wanted.  Check your
cables, subnet manager configuration, etc.  The openib BTL will be
ignored for this job.

  Local host: c01b01n03
--------------------------------------------------------------------------


           ************************************************************
           *        Program running with 60 parallel MPI-processes    *
           *              working on a common directory               *
           ************************************************************

-------------------------------------------------------------------------------------------
                                      ORCA LEAN-SCF
                              memory conserving SCF solver
-------------------------------------------------------------------------------------------

--------------------
CPCM SOLVATION MODEL
--------------------
CPCM parameters:
  Epsilon                                         ...      33.4280
  Refrac                                          ...       1.3288
  Rsolv                                           ...       1.3000
  Surface type                                    ... GAUSSIAN VDW
  Discretization scheme                           ... Constant charge density
    Threshold for H atoms                         ...       5.0000 (charges/Ang^2)
    Threshold for non-H atoms                     ...       5.0000 (charges/Ang^2)
  Epsilon function type                           ...         CPCM
Solvent:                                          ... METHANOL
Radii:
  Scheme                                          ... Element-dependent radii
  Radius for C  used is    3.8550 Bohr (=   2.0400 Ang.)
  Radius for O  used is    3.4469 Bohr (=   1.8240 Ang.)
  Radius for H  used is    2.4944 Bohr (=   1.3200 Ang.)
Calculating surface                               ...        done! (  0.3s)
Cavity surface points                             ...         6276
Cavity Volume                                     ...    4550.5488
Cavity Surface-area                               ...    2104.6177
Calculating surface distance matrix               ...        done! (  0.2s)
Performing Cholesky decomposition & store         ...        done! (  0.7s)
Overall time for CPCM initialization              ...                 1.2s

[c01b01n03:2180277] 49 more processes have sent help message help-mpi-btl-openib.txt / error in device init
[c01b01n03:2180277] Set MCA parameter "orte_base_help_aggregate" to 0 to see all help / error messages
[c01b01n03:2180277] 9 more processes have sent help message help-mpi-btl-openib.txt / no active ports found
----------------------------------------D-I-I-S--------------------------------------------
Iteration    Energy (Eh)           Delta-E    RMSDP     MaxDP     DIISErr   Damp  Time(sec)
-------------------------------------------------------------------------------------------
               ***  Starting incremental Fock matrix formation  ***
    1    -2033.0205879281256784     0.00e+00  7.96e-03  2.91e-01  2.37e-01  0.700  11.1
    2    -2033.4280390138646908    -4.07e-01  6.51e-03  2.28e-01  8.18e-02  0.700   8.8
                               ***Turning on AO-DIIS***
    3    -2033.5805413963853425    -1.53e-01  2.83e-03  7.89e-02  2.46e-02  0.700   7.2
    4    -2033.6724406848607032    -9.19e-02  4.77e-03  8.66e-02  1.14e-02  0.000   6.5
    5    -2033.8759812670077736    -2.04e-01  1.24e-03  2.92e-02  4.93e-03  0.000   6.8
                              *** Initializing SOSCF ***
---------------------------------------S-O-S-C-F--------------------------------------
Iteration    Energy (Eh)           Delta-E    RMSDP     MaxDP     MaxGrad    Time(sec)
--------------------------------------------------------------------------------------
    6    -2033.8773494916022173    -1.37e-03  3.99e-04  9.10e-03  1.35e-03     7.6
               *** Restarting incremental Fock matrix formation ***
    7    -2033.8774576805299148    -1.08e-04  3.17e-04  5.74e-03  1.52e-04     6.3
    8    -2033.8774360645929846     2.16e-05  7.57e-05  2.07e-03  6.25e-04     5.4
    9    -2033.8774727150148465    -3.67e-05  7.35e-05  1.52e-03  1.25e-04     5.3
   10    -2033.8774725987404963     1.16e-07  1.95e-05  4.35e-04  1.10e-04     5.5
                 **** Energy Check signals convergence ****

               *****************************************************
               *                     SUCCESS                       *
               *           SCF CONVERGED AFTER  10 CYCLES          *
               *****************************************************

             **** ENERGY FILE WAS UPDATED (nmr-conf-7.en.tmp) ****

----------------
TOTAL SCF ENERGY
----------------

Total Energy       :      -2033.87747262226003 Eh          -55344.61970 eV

Components:
Nuclear Repulsion  :       5678.07107492886371 Eh          154508.16899 eV
Electronic Energy  :      -7711.89924078461081 Eh         -209851.44698 eV
One Electron Energy:     -14084.71904166299646 Eh         -383264.68992 eV
Two Electron Energy:       6372.81980087838565 Eh          173413.24294 eV
CPCM Dielectric    :         -0.04930676651307 Eh              -1.34171 eV

Virial components:
Potential Energy   :      -4061.11358059305439 Eh         -110508.51867 eV
Kinetic Energy     :       2027.23610797079459 Eh           55163.89898 eV
Virial Ratio       :          2.00327606864605

DFT components:
N(Alpha)           :      156.999981723042 electrons
N(Beta)            :      156.999981723042 electrons
N(Total)           :      313.999963446083 electrons
E(X)               :     -268.089860585853 Eh       
E(C)               :      -10.601375373913 Eh       
E(XC)              :     -278.691235959766 Eh       

CPCM Solvation Model Properties:
Surface-charge          :         -0.04258783456352
Corrected charge        :          0.00000000000000
Outlying charge corr.   :          0.00007768237082 Eh               0.00211 eV
Free-energy (cav+disp)  :  This term is not implemented in the current solvation scheme

---------------
SCF CONVERGENCE
---------------

  Last Energy change         ...   -1.1627e-07  Tolerance :   1.0000e-06
  Last MAX-Density change    ...    4.3461e-04  Tolerance :   1.0000e-05
  Last RMS-Density change    ...    1.9514e-05  Tolerance :   1.0000e-06
  Last DIIS Error            ...    1.3470e-03  Tolerance :   1.0000e-06
  Last Orbital Gradient      ...    1.0961e-04  Tolerance :   5.0000e-05
  Last Orbital Rotation      ...    2.2158e-04  Tolerance :   5.0000e-05


----------------
ORBITAL ENERGIES
----------------

  NO   OCC          E(Eh)            E(eV) 
   0   2.0000     -18.920263      -514.8465 
   1   2.0000     -18.918458      -514.7974 
   2   2.0000     -18.917455      -514.7701 
   3   2.0000     -18.911723      -514.6141 
   4   2.0000     -18.909563      -514.5554 
   5   2.0000     -18.909298      -514.5482 
   6   2.0000     -18.901991      -514.3493 
   7   2.0000     -18.899071      -514.2699 
   8   2.0000     -18.878015      -513.6969 
   9   2.0000     -18.872572      -513.5488 
  10   2.0000     -18.868288      -513.4322 
  11   2.0000     -10.046686      -273.3842 
  12   2.0000     -10.045567      -273.3538 
  13   2.0000     -10.044268      -273.3184 
  14   2.0000     -10.043366      -273.2939 
  15   2.0000     -10.042737      -273.2768 
  16   2.0000     -10.041316      -273.2381 
  17   2.0000     -10.040779      -273.2235 
  18   2.0000     -10.040026      -273.2030 
  19   2.0000     -10.038276      -273.1554 
  20   2.0000     -10.036512      -273.1074 
  21   2.0000     -10.032939      -273.0102 
  22   2.0000     -10.032701      -273.0037 
  23   2.0000     -10.032700      -273.0037 
  24   2.0000     -10.032143      -272.9885 
  25   2.0000     -10.024579      -272.7827 
  26   2.0000     -10.020131      -272.6616 
  27   2.0000      -9.989504      -271.8282 
  28   2.0000      -9.987153      -271.7642 
  29   2.0000      -9.986815      -271.7550 
  30   2.0000      -9.985525      -271.7199 
  31   2.0000      -9.985219      -271.7116 
  32   2.0000      -9.983648      -271.6689 
  33   2.0000      -9.983384      -271.6617 
  34   2.0000      -9.983295      -271.6593 
  35   2.0000      -9.982745      -271.6443 
  36   2.0000      -9.982515      -271.6380 
  37   2.0000      -9.982334      -271.6331 
  38   2.0000      -9.979486      -271.5556 
  39   2.0000      -9.978559      -271.5304 
  40   2.0000      -9.974509      -271.4202 
  41   2.0000      -9.974192      -271.4116 
  42   2.0000      -1.014895       -27.6167 
  43   2.0000      -1.011249       -27.5175 
  44   2.0000      -1.007237       -27.4083 
  45   2.0000      -0.996597       -27.1188 
  46   2.0000      -0.989134       -26.9157 
  47   2.0000      -0.983420       -26.7602 
  48   2.0000      -0.981352       -26.7040 
  49   2.0000      -0.970041       -26.3962 
  50   2.0000      -0.949198       -25.8290 
  51   2.0000      -0.945220       -25.7208 
  52   2.0000      -0.941524       -25.6202 
  53   2.0000      -0.797006       -21.6876 
  54   2.0000      -0.796909       -21.6850 
  55   2.0000      -0.793852       -21.6018 
  56   2.0000      -0.760105       -20.6835 
  57   2.0000      -0.733688       -19.9647 
  58   2.0000      -0.716555       -19.4985 
  59   2.0000      -0.704483       -19.1700 
  60   2.0000      -0.699628       -19.0378 
  61   2.0000      -0.696610       -18.9557 
  62   2.0000      -0.696300       -18.9473 
  63   2.0000      -0.686304       -18.6753 
  64   2.0000      -0.667116       -18.1532 
  65   2.0000      -0.651244       -17.7213 
  66   2.0000      -0.649339       -17.6694 
  67   2.0000      -0.648528       -17.6473 
  68   2.0000      -0.637984       -17.3604 
  69   2.0000      -0.622866       -16.9490 
  70   2.0000      -0.617808       -16.8114 
  71   2.0000      -0.612542       -16.6681 
  72   2.0000      -0.578687       -15.7469 
  73   2.0000      -0.570611       -15.5271 
  74   2.0000      -0.562106       -15.2957 
  75   2.0000      -0.558938       -15.2095 
  76   2.0000      -0.545606       -14.8467 
  77   2.0000      -0.543689       -14.7945 
  78   2.0000      -0.536998       -14.6125 
  79   2.0000      -0.532672       -14.4947 
  80   2.0000      -0.512149       -13.9363 
  81   2.0000      -0.511929       -13.9303 
  82   2.0000      -0.505037       -13.7428 
  83   2.0000      -0.498588       -13.5673 
  84   2.0000      -0.492009       -13.3882 
  85   2.0000      -0.478855       -13.0303 
  86   2.0000      -0.473596       -12.8872 
  87   2.0000      -0.468005       -12.7351 
  88   2.0000      -0.466569       -12.6960 
  89   2.0000      -0.456685       -12.4270 
  90   2.0000      -0.451409       -12.2835 
  91   2.0000      -0.448100       -12.1934 
  92   2.0000      -0.444003       -12.0819 
  93   2.0000      -0.440351       -11.9826 
  94   2.0000      -0.438508       -11.9324 
  95   2.0000      -0.434741       -11.8299 
  96   2.0000      -0.428047       -11.6477 
  97   2.0000      -0.426945       -11.6178 
  98   2.0000      -0.421402       -11.4669 
  99   2.0000      -0.419474       -11.4145 
 100   2.0000      -0.417713       -11.3665 
 101   2.0000      -0.411734       -11.2039 
 102   2.0000      -0.406858       -11.0712 
 103   2.0000      -0.405421       -11.0321 
 104   2.0000      -0.402010       -10.9393 
 105   2.0000      -0.401517       -10.9258 
 106   2.0000      -0.399175       -10.8621 
 107   2.0000      -0.389409       -10.5964 
 108   2.0000      -0.389165       -10.5897 
 109   2.0000      -0.385574       -10.4920 
 110   2.0000      -0.384106       -10.4520 
 111   2.0000      -0.381621       -10.3844 
 112   2.0000      -0.377552       -10.2737 
 113   2.0000      -0.375784       -10.2256 
 114   2.0000      -0.373344       -10.1592 
 115   2.0000      -0.371111       -10.0984 
 116   2.0000      -0.368241       -10.0204 
 117   2.0000      -0.362886        -9.8746 
[...]
  X           0.9922181    0.1163679   -0.0442915
  Y          -0.1242040    0.9000262   -0.4177633
  Z          -0.0087508    0.4200135    0.9074757

 --------------
 Nucleus  73H :
 --------------

Diamagnetic contribution to the shielding tensor (ppm) : 
           -95.387        118.268       -51.395
           -68.567         94.204       -24.965
           -60.188         37.812       -35.832

Paramagnetic contribution to the shielding tensor (ppm): 
           124.432       -114.473        50.336
            73.679        -64.762        24.722
            58.169        -37.161        60.648

Total shielding tensor (ppm): 
            29.045          3.795        -1.059
             5.112         29.442        -0.243
            -2.019          0.651        24.817


 Diagonalized sT*s matrix:
 
 sDSO           -87.358           20.382           29.962  iso=     -12.338
 sPSO           110.867            5.619            3.834  iso=      40.106
        ---------------  ---------------  ---------------
 Total           23.508           26.001           33.795  iso=      27.768

 Orientation: 
  X           0.5367043   -0.4610942   -0.7066404
  Y          -0.4346954    0.5666887   -0.6999313
  Z           0.7231794    0.6828294    0.1037087

 --------------
 Nucleus  74H :
 --------------

Diamagnetic contribution to the shielding tensor (ppm) : 
          -143.500          0.453       -46.064
           -98.292         49.162       -15.465
           -54.221         13.485      -109.093

Paramagnetic contribution to the shielding tensor (ppm): 
           167.393         -0.423        44.535
            97.209        -15.686        15.447
            53.133        -15.347       133.760

Total shielding tensor (ppm): 
            23.893          0.030        -1.529
            -1.083         33.476        -0.018
            -1.088         -1.862        24.667


 Diagonalized sT*s matrix:
 
 sDSO          -184.446          -71.220           52.234  iso=     -67.811
 sPSO           207.270           96.843          -18.646  iso=      95.156
        ---------------  ---------------  ---------------
 Total           22.824           25.624           33.588  iso=      27.345

 Orientation: 
  X          -0.7911509   -0.6095345   -0.0504770
  Y          -0.0906797    0.0352792    0.9952550
  Z          -0.6048615    0.7919742   -0.0831836

 --------------
 Nucleus  75H :
 --------------

Diamagnetic contribution to the shielding tensor (ppm) : 
            36.099       -250.620       -17.552
            -4.210       -146.783       -14.412
           -23.799         28.822        -9.560

Paramagnetic contribution to the shielding tensor (ppm): 
            -7.777        260.562        13.092
            12.055        182.245        10.096
            19.469        -32.346        23.519

Total shielding tensor (ppm): 
            28.322          9.942        -4.460
             7.844         35.463        -4.316
            -4.329         -3.524        13.959


 Diagonalized sT*s matrix:
 
 sDSO           -21.331           98.519         -197.431  iso=     -40.081
 sPSO            33.949          -76.004          240.041  iso=      65.995
        ---------------  ---------------  ---------------
 Total           12.618           22.515           42.610  iso=      25.914

 Orientation: 
  X           0.2230702    0.8067943    0.5471039
  Y           0.0918013   -0.5761384    0.8121804
  Z           0.9704701   -0.1309484   -0.2025840

 --------------
 Nucleus  76H :
 --------------

Diamagnetic contribution to the shielding tensor (ppm) : 
          -146.906         20.098       -55.464
          -120.819         62.360       -22.252
            28.367        -22.854       -60.575

Paramagnetic contribution to the shielding tensor (ppm): 
           179.767        -22.437        43.092
           118.062        -40.286        25.011
           -42.024         23.825        91.344

Total shielding tensor (ppm): 
            32.861         -2.339       -12.372
            -2.757         22.074         2.760
           -13.657          0.971        30.769


 Diagonalized sT*s matrix:
 
 sDSO          -122.546           64.294          -86.869  iso=     -48.374
 sPSO           141.265          -42.600          132.159  iso=      76.941
        ---------------  ---------------  ---------------
 Total           18.719           21.695           45.290  iso=      28.568

 Orientation: 
  X          -0.6762186    0.0204886   -0.7364161
  Y          -0.1033914    0.9870805    0.1224024
  Z          -0.7294098   -0.1589099    0.6653638

 --------------
 Nucleus  77H :
 --------------

Diamagnetic contribution to the shielding tensor (ppm) : 
           -60.343        150.136        -6.725
           -47.786        128.381        -7.898
            38.486        -27.995        20.063

Paramagnetic contribution to the shielding tensor (ppm): 
            89.011       -147.840         6.668
            48.615        -86.889         4.266
           -39.186         25.220         2.544

Total shielding tensor (ppm): 
            28.668          2.297        -0.057
             0.829         41.492        -3.632
            -0.701         -2.775        22.607


 Diagonalized sT*s matrix:
 
 sDSO            17.605          -68.787          139.282  iso=      29.367
 sPSO             4.472           97.267          -97.074  iso=       1.555
        ---------------  ---------------  ---------------
 Total           22.077           28.481           42.208  iso=      30.922

 Orientation: 
  X           0.0089764   -0.9941161   -0.1079474
  Y           0.1681012    0.1079157   -0.9798450
  Z           0.9857289   -0.0093506    0.1680808

 --------------
 Nucleus  78H :
 --------------

Diamagnetic contribution to the shielding tensor (ppm) : 
          -110.322        -13.165        -5.799
           -98.545         41.125         2.668
           -36.442         17.958       -34.112

Paramagnetic contribution to the shielding tensor (ppm): 
           134.028         17.566         9.277
           104.706        -21.172         0.159
            39.435        -18.162        70.065

Total shielding tensor (ppm): 
            23.706          4.401         3.478
             6.161         19.953         2.827
             2.993         -0.205        35.953


 Diagonalized sT*s matrix:
 
 sDSO            45.923          -96.569          -52.663  iso=     -34.436
 sPSO           -29.718          122.822           89.817  iso=      60.974
        ---------------  ---------------  ---------------
 Total           16.205           26.254           37.155  iso=      26.538

 Orientation: 
  X           0.5736238    0.7655154    0.2914479
  Y          -0.8166679    0.5619858    0.1312459
  Z          -0.0633188   -0.3133020    0.9475403

 --------------
 Nucleus  79H :
 --------------

Diamagnetic contribution to the shielding tensor (ppm) : 
            81.739        -85.733       -19.314
            29.752         -5.968       -10.911
          -128.358        115.943         6.614

Paramagnetic contribution to the shielding tensor (ppm): 
           -55.878         87.592        18.335
           -28.960         35.776         9.785
           128.046       -118.749        20.989

Total shielding tensor (ppm): 
            25.861          1.860        -0.978
             0.791         29.808        -1.127
            -0.312         -2.806        27.603


 Diagonalized sT*s matrix:
 
 sDSO            84.187           32.433          -34.235  iso=      27.462
 sPSO           -58.730           -5.969           65.587  iso=       0.296
        ---------------  ---------------  ---------------
 Total           25.457           26.464           31.352  iso=      27.757

 Orientation: 
  X           0.9641041    0.0967193   -0.2472826
  Y          -0.2634726    0.4640270   -0.8457311
  Z           0.0329473    0.8805250    0.4728532

 --------------
 Nucleus  80H :
 --------------

Diamagnetic contribution to the shielding tensor (ppm) : 
            -9.188       -178.490       -11.920
           -41.558        -85.494         4.768
           -95.458        109.184      -131.327

Paramagnetic contribution to the shielding tensor (ppm): 
            41.311        178.617         7.723
            41.878        110.516        -2.319
            91.123       -108.455       158.807

Total shielding tensor (ppm): 
            32.123          0.128        -4.198
             0.320         25.022         2.449
            -4.335          0.730        27.480


 Diagonalized sT*s matrix:
 
 sDSO          -115.738         -130.094           19.823  iso=     -75.336
 sPSO           139.224          156.534           14.876  iso=     103.545
        ---------------  ---------------  ---------------
 Total           23.486           26.440           34.699  iso=      28.208

 Orientation: 
  X          -0.3277897    0.4065090   -0.8528214
  Y           0.7125699    0.6990867    0.0593465
  Z          -0.6203209    0.5882417    0.5188195

 --------------
 Nucleus  81H :
 --------------

Diamagnetic contribution to the shielding tensor (ppm) : 
           -36.951        -48.228       -24.895
           -40.747          1.543        -1.950
          -107.480         96.283       -68.226

Paramagnetic contribution to the shielding tensor (ppm): 
            63.864         51.397        22.874
            43.716         22.303         3.352
           108.939        -93.558        98.201

Total shielding tensor (ppm): 
            26.913          3.169        -2.021
             2.969         23.846         1.402
             1.460          2.725        29.975


 Diagonalized sT*s matrix:
 
 sDSO            -5.070          -35.327          -63.237  iso=     -34.545
 sPSO            26.587           63.792           93.989  iso=      61.456
        ---------------  ---------------  ---------------
 Total           21.517           28.465           30.753  iso=      26.911

 Orientation: 
  X           0.4991275    0.8274503   -0.2572891
  Y          -0.8396488    0.3884529   -0.3795976
  Z           0.2141535   -0.4055001   -0.8886552



--------------------------------
CHEMICAL SHIELDING SUMMARY (ppm)
--------------------------------


  Nucleus  Element    Isotropic     Anisotropy
  -------  -------  ------------   ------------
      0       C           25.212        124.114 
      1       C           46.717         92.559 
      2       C           24.904        119.856 
      3       C           77.568        131.122 
      4       C           40.227        193.758 
      5       C           76.332        127.353 
      6       C          147.179         35.138 
      7       C          133.758         18.032 
      8       C          135.820         24.084 
      9       C          143.550         39.743 
     10       C           43.551        183.057 
     11       C           71.085        154.112 
     12       C           30.285        117.537 
     13       C           32.149        123.221 
     14       C           66.873        144.018 
     15       C           56.043        148.362 
     16       C          116.210         71.683 
     17       C          113.029         67.273 
     23       C          100.364         47.333 
     24       C           94.942         28.104 
     25       C           43.448        179.026 
     26       C          108.106         61.617 
     28       C           71.398        162.625 
     29       C           31.294        118.704 
     30       C           33.007        120.511 
     31       C           68.570        145.311 
     32       C           58.130        155.650 
     33       C          124.176         76.919 
     34       C          123.702         74.683 
     35       C          123.925         80.453 
     41       C          124.699         76.142 
     42       H           25.850          9.143 
     43       H           25.816         10.010 
     44       H           29.049          4.583 
     45       H           30.142          6.572 
     46       H           30.733          4.296 
     47       H           29.017          3.035 
     48       H           29.129          4.456 
     49       H           28.213          7.996 
     50       H           24.611         10.181 
     51       H           24.634          3.140 
     52       H           24.579          5.619 
     53       H           28.333          5.465 
     54       H           27.994          7.744 
     55       H           27.552          6.370 
     56       H           28.423          5.311 
     57       H           25.305         13.253 
     58       H           26.523          5.624 
     59       H           26.895          4.998 
     60       H           27.643          4.051 
     61       H           27.344          4.172 
     62       H           29.300         17.206 
     63       H           24.678         10.770 
     64       H           25.347          5.334 
     65       H           25.123          3.830 
     66       H           28.086          9.716 
     67       H           27.956          6.826 
     68       H           27.575          9.437 
     69       H           27.432          7.648 
     70       H           28.068          8.682 
     71       H           28.034          8.467 
     72       H           27.833          6.448 
     73       H           27.768          9.041 
     74       H           27.345          9.364 
     75       H           25.914         25.044 
     76       H           28.568         25.083 
     77       H           30.922         16.929 
     78       H           26.538         15.925 
     79       H           27.757          5.392 
     80       H           28.208          9.736 
     81       H           26.911          5.762 


NMR shielding tensor and spin rotation calculation done in   2.3 sec 

Maximum memory used throughout the entire PROP-calculation: 365.7 MB
[c01b01n03:2181766] 54 more processes have sent help message help-mpi-btl-openib.txt / error in device init
[c01b01n03:2181766] Set MCA parameter "orte_base_help_aggregate" to 0 to see all help / error messages
[c01b01n03:2181766] 4 more processes have sent help message help-mpi-btl-openib.txt / no active ports found
--------------------------------------------------------------------------
WARNING: There was an error initializing an OpenFabrics device.

  Local host:   c01b01n03
  Local device: mlx5_0
--------------------------------------------------------------------------
--------------------------------------------------------------------------
WARNING: There is at least one non-excluded one OpenFabrics device found,
but there are no active ports detected (or Open MPI was unable to use
them).  This is most certainly not what you wanted.  Check your
cables, subnet manager configuration, etc.  The openib BTL will be
ignored for this job.

  Local host: c01b01n03
--------------------------------------------------------------------------
[c01b01n03:2182200] 50 more processes have sent help message help-mpi-btl-openib.txt / error in device init
[c01b01n03:2182200] Set MCA parameter "orte_base_help_aggregate" to 0 to see all help / error messages
[c01b01n03:2182200] 8 more processes have sent help message help-mpi-btl-openib.txt / no active ports found

--------------------------------
SUGGESTED CITATIONS FOR THIS RUN
--------------------------------

Below you find a list of papers that are relevant to this ORCA run
We neither can nor want to force you to cite these papers, but we appreciate if you do
You receive ORCA, which is the product of decades of hard work by many enthusiastic individuals, for free
The only thing we kindly ask in return is that you cite our papers,
We deeply appreciate it, if you show your appreciation for ORCA by not just citing the generic ORCA reference.

Please note that relegating all ORCA citations to the supporting information does *not* help us.
SI sections are not indexed - citations you put there will not count into any citation statistics
But we need these citations in order to attract the funding resources that allow us to do what we are doing

Therefore, if you are a happy ORCA user, please consider citing a few of the papers listed below in the main body of your paper

In addition to the list printed below, the program has created the file nmr-conf-7.bibtex that contains the list in bibtex format
You can import this file easily into all common literature databanks and citation aid programs


List of essential papers. We consider these as the minimum necessary citations

  1. Neese, F.
     Software update: the ORCA program system, version 6.0
     WIRES Comput. Molec. Sci. 2025 15(1), e70019
     doi.org/10.1002/wcms.7019

List of papers to cite with high priority. The work reported in these papers was absolutely
necessary for this run to complete.
Our perspective: the developers of density functionals and basis sets usually get cited in chemistry papers
Good! But without the algorithms to do something with them, the functionals or basis sets would not do anything.
Hence, in our opinion, the algorithm design and method developments papers are equally worthy of getting cited

  1. Neese, F.
     An improvement of the resolution of the identity approximation for the formation of the Coulomb matrix
     J. Comp. Chem. 2003 24(14), 1740-1747
     doi.org/10.1002/jcc.10318
  2. Stoychev, G.L.; Auer, A.A.; Neese, F.
     Automatic Generation of Auxiliary Basis Sets
     J. Theo. Comp. Chem. 2017 13 , 554-562
     doi.org/10.1021/acs.jctc.6b01041
  3. Stoychev, G.L.; Auer, A.A.; Izsak, R.; Neese, F.
     Self-Consistent Field Calculation of Nuclear Magnetic Resonance Chemical Shielding Constants Using Gauge-Including Atomic Orbitals and Approximate Two-Electron Integrals
     J. Chem. Theory Comput. 2018 14(2), 619-637
     doi.org/10.1021/acs.jctc.7b01006
  4. Garcia-Rates, M.; Neese, F.
     Effect of the Solute Cavity on the Solvation Energy and its Derivatives within the Framework of the Gaussian Charge Scheme
     J. Comput. Chem. 2020 41 , 922-939
     doi.org/10.1002/jcc.26139
  5. Neese, F.
     The SHARK Integral Generation and Digestion System
     J. Comp. Chem. 2022 44(3), 381
     doi.org/10.1002/jcc.26942

List of suggested additional citations. These are papers that are important in the 'surrounding' of 
of this run, or papers that preceded the highly important papers. If you like your results we are grateful for a citation.

  1. Neese, F.
     The ORCA program system
     WIRES Comput. Molec. Sci. 2012 2(1), 73-78
     doi.org/10.1002/wcms.81
  2. Neese, F.
     Software update: the ORCA program system, version 4.0
     WIRES Comput. Molec. Sci. 2018 8(1), 1-6
     doi.org/10.1002/wcms.1327
  3. Neese, F.; Wennmohs, F.; Becker, U.; Riplinger, C.
     The ORCA quantum chemistry program package
     J. Chem. Phys. 2020 152(22), 224108
     doi.org/10.1063/5.0004608
  4. Neese, F.
     Software update: The ORCA program system—Version 5.0
     WIRES Comput. Molec. Sci. 2022 12(1), e1606
     doi.org/10.1002/wcms.1606

List of optional additional citations

  1. Neese, F.
     Approximate second-order SCF convergence for spin unrestricted wavefunctions
     Chem. Phys. Lett. 2000 325(1-3), 93-98
     doi.org/10.1016/s0009-2614(00)00662-x

Timings for individual modules:

Sum of individual times          ...      286.758 sec (=   4.779 min)
Startup calculation              ...       81.161 sec (=   1.353 min)  28.3 %
SCF iterations                   ...       98.374 sec (=   1.640 min)  34.3 %
Property integrals               ...       91.067 sec (=   1.518 min)  31.8 %
SCF Response                     ...       10.192 sec (=   0.170 min)   3.6 %
Property calculations            ...        5.964 sec (=   0.099 min)   2.1 %
                             ****ORCA TERMINATED NORMALLY****
TOTAL RUN TIME: 0 days 0 hours 5 minutes 13 seconds 810 msec
