
                                 *****************
                                 * O   R   C   A *
                                 *****************

                                            #,                                       
                                            ###                                      
                                            ####                                     
                                            #####                                    
                                            ######                                   
                                           ########,                                 
                                     ,,################,,,,,                         
                               ,,#################################,,                 
                          ,,##########################################,,             
                       ,#########################################, ''#####,          
                    ,#############################################,,   '####,        
                  ,##################################################,,,,####,       
                ,###########''''           ''''###############################       
              ,#####''   ,,,,##########,,,,          '''####'''          '####       
            ,##' ,,,,###########################,,,                        '##       
           ' ,,###''''                  '''############,,,                           
         ,,##''                                '''############,,,,        ,,,,,,###''
      ,#''                                            '''#######################'''  
     '                                                          ''''####''''         
             ,#######,   #######,   ,#######,      ##                                
            ,#'     '#,  ##    ##  ,#'     '#,    #''#        ,####,    ,#,          
            ##       ##  ##   ,#'  ##            #'  '#       #'       ,# #          
            ##       ##  #######   ##           ,######,      #####,      #          
            '#,     ,#'  ##    ##  '#,     ,#' ,#      #,     #,   #      #          
             '#######'   ##     ##  '#######'  #'      '#     '####' #    #          



                #########################################################
                #                        -***-                          #
                #          Department of theory and spectroscopy        #
                #                                                       #
                #                      Frank Neese                      #
                #                                                       #
                #     Directorship, Architecture, Infrastructure        #
                #                    SHARK, DRIVERS                     #
                #        Core code/Algorithms in most modules           #
                #                                                       #
                #        Max Planck Institute fuer Kohlenforschung      #
                #                Kaiser Wilhelm Platz 1                 #
                #                 D-45470 Muelheim/Ruhr                 #
                #                      Germany                          #
                #                                                       #
                #                  All rights reserved                  #
                #                        -***-                          #
                #########################################################


                         Program Version 6.1.0-f.0  -   RELEASE   -


 With contributions from (in alphabetic order):
[Max-Planck-Institut fuer Kohlenforschung]                               
  Daniel Aravena         : Magnetic Suceptibility                        
  Michael Atanasov       : Ab Initio Ligand Field Theory (pilot matlab implementation)
  Alexander A. Auer      : GIAO ZORA, VPT2 properties, NMR spectrum      
  Ute Becker             : All parallelization in ORCA, NUMFREQ, NUMCALC 
  Giovanni Bistoni       : ED, misc. LED, open-shell LED, HFLD           
  Dmytro Bykov           : pre 5.0 version of the SCF Hessian            
  Marcos Casanova-Páez   : Triplet and SCS-CIS(D). UHF-(DLPNO)-IP/EA/STEOM-CCSD. UHF-CVS-IP/STEOM-CCSD   
  Vijay G. Chilkuri      : MRCI spin determinant printing, contributions to CSF-ICE 
  Pauline Colinet        : FMM embedding                                 
  Dipayan Datta          : RHF DLPNO-CCSD density                        
  Achintya Kumar Dutta   : EOM-CC, STEOM-CC                              
  Nicolas Foglia         : Exact transition moments, OPA infrastructure, MCD improvements    
  Dmitry Ganyushin       : Spin-Orbit,Spin-Spin,Magnetic field MRCI      
  Miquel Garcia-Rates    : C-PCM and meta-GGA Hessian, CCSD/C-PCM, Gaussian charge scheme 
  Tiago L. C. Gouveia    : GS-ROHF, GS-ROCIS                             
  Yang Guo               : DLPNO-NEVPT2, F12-NEVPT2, CIM, IAO-localization        
  Andreas Hansen         : Spin unrestricted coupled pair/coupled cluster methods 
  Ingolf Harden          : AUTO-CI MPn and infrastructure                
  Benjamin Helmich-Paris : MC-RPA, TRAH-(SCF,CASSCF), AVAS, COSX integrals, SCF dyn. polar., MC-PDFT, srDFT 
  Lee Huntington         : MR-EOM, pCC                                   
  Robert Izsak           : Overlap fitted RIJCOSX, COSX-SCS-MP3, EOM     
  Riya Kayal             : Wick's Theorem for AUTO-CI, AUTO-CI UHF-CCSDT 
  Emily Kempfer          : AUTO-CI RHF CISDT and CCSDT, approximate NEVPT4
  Christian Kollmar      : KDIIS, OOCD, Brueckner-CCSD(T), CCSD density, CASPT2, CASPT2-K, improved NEVPT2 
  Axel Koslowski         : Symmetry handling                             
  Simone Kossmann        : meta-GGA functionals, TD-DFT gradient, OOMP2, (MP2 Hessian; deprecated post 5.0) 
  Lucas Lang             : DCDCAS, Hyperfine gauge corrections, ICE-SOC+SSC
  Marvin Lechner         : AUTO-CI (C++ implementation), FIC-MRCC        
  Spencer Leger          : CASSCF response                               
  Dagmar Lenk            : GEPOL surface, SMD, ORCA-2-JSON               
  Dimitrios Liakos       : Extrapolation schemes; Compound Job, Property file
  Dimitrios Manganas     : Further ROCIS development; embedding schemes. LFT, Crystal Embedding 
  Dimitrios Pantazis     : SARC Basis sets                               
  Anastasios Papadopoulos: AUTO-CI, single reference methods and gradients 
  Taras Petrenko         : pre 6.0 DFT Hessian and TD-DFT gradient,  ECA, NRVS 
  Petra Pikulova         : Analytic Raman intensities                    
  Peter Pinski           : DLPNO-MP2, DLPNO-MP2 Gradient                 
  Shashank Vittal Rao    : ES-AILFT, MagRelax                            
  Christoph Reimann      : Effective Core Potentials                     
  Marius Retegan         : Local ZFS, SOC                                
  Christoph Riplinger    : Optimizer, TS searches, QM/MM, DLPNO-CCSD(T), (RO)-DLPNO pert. Triples 
  Michael Roemelt        : Original ROCIS implementation, recursive CI coupling coefficients
  Masaaki Saitow         : Open-shell DLPNO-CCSD energy and density      
  Barbara Sandhoefer     : DKH picture change effects                    
  Yorick L. A. Schmerwitz: GMF and freeze-and-release deltaSCF, NEB S-IDPP initial path                    
  Kantharuban Sivalingam : CASSCF convergence/infrastructure, NEVPT2, NEVPT3, NEVPT4(SD), FIC-MRCI and CEPA variants
  Bernardo de Souza      : ESD, SOC TD-DFT                               
  Georgi L. Stoychev     : AutoAux, RI-MP2 NMR, DLPNO-MP2 response, X2C  
  Van Anh Tran           : RI-MP2 g-tensors                              
  Willem Van den Heuvel  : Paramagnetic NMR                              
  Zikuan Wang            : NOTCH, Electric field optimization            
  Frank Wennmohs         : Technical directorship and infrastructure     
  Hang Xu                : AUTO-CI-Response properties                   
                                                                         
[FACCTs GmbH]                                                            
  Markus Bursch, Nicolas Foglia, Miquel Garcia-Rates, Ingolf Harden, Hagen Neugebauer, Anastasios Papadopoulos, 
  Christoph Riplinger, Bernardo de Souza, Georgi L. Stoychev                                                    
                                                                 
  APM, various basis sets, CI-OPT, improved COSX, DLPNO-Multilevel,           
  DOCKER, DRACO, updates on ESD, Fragmentator, GOAT, IRC, LR-CPCM, L-BFGS, MBIS, meta-GGA TD-DFT gradient, ML-optimized integration grids, 
  MM, NACMEs, nearIR, NEB, NEB-TS, NL-DFT gradient (VV10), 2- and 3-layer-ONIOM, interface openCOSMO-RS, QMMM,   
  Crystal-QMMM, RESP, rigid body optimization, SF, symmetry and pop. for TD-DFT, various functionals, SOLVATOR                                   
                                                                         
[Other institutions]                                                     
  V. Asgeirsson          : NEB                                           
  Christoph Bannwarth    : sTDA-DFT, sTD-DFT, PBEh-3c, B97-3c, D3        
  Giovanni Bistoni       : ETS/NOCV, ADLD/ADEX, COVALED                  
  Martin Brehm           : Molecular dynamics                            
  Ronald Cardenas        : ETS/NOCV                                      
  Martina Colucci        : COVALED                                       
  Sebastian Ehlert       : rSCAN, r2SCAN, r2SCAN-3c, D4, dhf basis sets  
  Marvin Friede          : D4 for Fr, Ra, Ac-Lr                          
  Lars Goerigk           : TD-DFT with DH, B97 family of functionals     
  Stefan Grimme          : VdW corrections, initial TS optimization, DFT functionals, gCP, sTDA/sTD-DF 
  Waldemar Hujo          : DFT-NL                                        
  H. Jonsson             : NEB                                           
  Holger Kruse           : gCP                                           
  Marcel Mueller         : wB97X-3c, vDZP basis set                      
  Hagen Neugebauer       : wr2SCAN, Native XTB                           
  Gianluca Regni         : ADLD/ADEX                                     
  Tobias Risthaus        : pre 6.0 range-separated hybrid DFT and stability analysis
  Lukas Wittmann         : regularized MP2, r2SCAN double-hybrids, wr2SCAN        
                                                                         
We gratefully acknowledge several colleagues who have allowed us to      
interface, adapt or use parts of their codes:                            
  Ed Valeev, F. Pavosevic, A. Kumar             : LibInt (2-el integral package), F12 methods 
  Garnet Chan, S. Sharma, J. Yang, R. Olivares  : DMRG                   
  Ulf Ekstrom                                   : XCFun DFT Library      
  Mihaly Kallay                                 : mrcc  (arbitrary order and MRCC methods)
  Frank Weinhold                                : gennbo (NPA and NBO analysis)           
  Simon Mueller                                 : openCOSMO-RS                            
  Christopher J. Cramer and Donald G. Truhlar   : smd solvation model                     
  S Lehtola, MJT Oliveira, MAL Marques          : LibXC Library                           
  Liviu Ungur et al                             : ANISO software                          


 Your calculation uses the libint2 library for the computation of 2-el integrals
 For citations please refer to: http://libint.valeyev.net

 Your ORCA version has been built with support for libXC version: 7.0.0
 For citations please refer to: https://libxc.gitlab.io

 This ORCA versions uses:
   CBLAS   interface :  Fast vector & matrix operations
   LAPACKE interface :  Fast linear algebra routines
   SCALAPACK package :  Parallel linear algebra routines
   Shared memory     :  Shared parallel matrices
   BLAS/LAPACK       :  OpenBLAS 0.3.29  USE64BITINT DYNAMIC_ARCH NO_AFFINITY Cooperlake SINGLE_THREADED
        Core in use  :  Cooperlake
   Copyright (c) 2011-2014, The OpenBLAS Project


  ***********************************
  * Starting time: Wed Mar  4 13:44:39 2026
  * Host name:     c01b01n07
  * Process ID:    532756
  * Working dir.:  /lustre1/jiangy/jiangy_liuxy/NMR/B9D7C2-SRSR-NMR/opt_conf
  ***********************************

NOTE: MaxCore=5000 MB was set to SCF,MP2,MDCI,CIPSI,MRCI,RASCI and CIS
      => If you want to overwrite this, your respective input block should be placed after the MaxCore statement


***************************************
The coordinates will be read from file: opt-conf-13.xyz
***************************************



Warning: The global flag for NMR shieldings has been found
         but shieldings for certain elements have also been explicitly requested in the EPRNMR block
         ==>> only the requested shieldings will be calculated

================================================================================

----- Orbital basis set information -----
Your calculation utilizes the basis: pcSseg-2
   F. Jensen, J. Chem. Theory Comput. 11, 132 (2015).

----- AuxJ basis set information -----
Your calculation utilizes the AutoAux generation procedure.
  G. L. Stoychev, A. A. Auer, F. Neese, J. Chem. Theory Comput. 13, 554 (2017)

----- AuxC basis set information -----
Your calculation utilizes the AutoAux generation procedure.
  G. L. Stoychev, A. A. Auer, F. Neese, J. Chem. Theory Comput. 13, 554 (2017)

----- AuxJK basis set information -----
Your calculation utilizes the AutoAux generation procedure.
  G. L. Stoychev, A. A. Auer, F. Neese, J. Chem. Theory Comput. 13, 554 (2017)

----- AuxX basis set information -----
Your calculation utilizes the AutoAux generation procedure.
  G. L. Stoychev, A. A. Auer, F. Neese, J. Chem. Theory Comput. 13, 554 (2017)

================================================================================
                                        WARNINGS
                       Please study these warnings very carefully!
================================================================================


================================================================================
                                       INPUT FILE
================================================================================
NAME = nmr-conf-13.inp
|  1> !TPSS PCSSEG-2 AUTOAUX NMR CPCM(Methanol)
|  2> 
|  3> %pal nprocs 60 end
|  4> %maxcore 5000
|  5> 
|  6> *XYZFILE 0 1 opt-conf-13.xyz
|  7> 
|  8> %EPRNMR
|  9>    NUCLEI = ALL C {SHIFT}
| 10>    NUCLEI = ALL H {SHIFT}
| 11>    TAU DOBSON
| 12> END
| 13> 
| 14> 
| 15>                          ****END OF INPUT****
================================================================================

                       ****************************
                       * Single Point Calculation *
                       ****************************

---------------------------------
CARTESIAN COORDINATES (ANGSTROEM)
---------------------------------
  C     20.173538  -29.527651   -0.372856
  C     21.011936  -29.639739    0.736575
  C     20.460770  -29.734844    2.016761
  C     19.083783  -29.827048    2.175071
  C     18.256301  -29.861362    1.052998
  C     18.793669  -29.653670   -0.213333
  C     16.836529  -30.342420    1.201327
  C     16.815105  -31.805304    1.709887
  C     17.665003  -32.759600    0.836742
  C     16.927323  -33.295834   -0.414139
  C     17.845941  -33.587019   -1.576624
  C     18.579197  -34.778230   -1.659518
  C     19.443735  -35.008234   -2.720622
  C     19.572920  -34.054451   -3.740658
  C     18.851339  -32.878078   -3.668208
  C     17.997861  -32.647498   -2.591245
  C     15.385879  -32.300272    1.920016
  C     18.251874  -33.900267    1.672333
  O     21.360376  -29.799816    3.038556
  O     20.805296  -29.397488   -1.569753
  O     22.371719  -29.713242    0.591005
  O     20.391845  -34.289119   -4.806328
  O     20.209459  -36.123223   -2.895060
  C     22.943066  -30.962763    0.102874
  C     21.963525  -32.155052    0.065786
  C     22.536634  -33.288848   -0.766369
  C     24.159815  -31.194626    0.986088
  O     23.788882  -31.361486    2.360995
  C     22.714350  -33.096360   -2.141185
  C     23.219774  -34.113929   -2.931500
  C     23.529281  -35.358471   -2.358534
  C     23.352447  -35.549080   -1.002380
  C     22.860741  -34.514438   -0.206457
  C     20.004460  -29.272672   -2.744428
  C     20.867206  -30.044832    4.356743
  C     20.220859  -37.105571   -1.861995
  O     21.576919  -32.587192    1.367295
  O     14.698368  -31.579092    2.949613
  O     19.191505  -33.445546    2.644529
  O     23.447283  -34.038475   -4.273575
  O     23.991597  -36.377789   -3.139758
  C     23.293539  -32.770968   -4.912366
  H     18.657854  -29.981228    3.155069
  H     18.145591  -29.687488   -1.076246
  H     16.320930  -30.275787    0.239726
  H     16.280376  -29.726048    1.911031
  H     17.289088  -31.801620    2.696520
  H     18.519826  -32.186714    0.473433
  H     16.200162  -32.552609   -0.744407
  H     16.357299  -34.191488   -0.148197
  H     18.461037  -35.533706   -0.896657
  H     18.958517  -32.148017   -4.460858
  H     17.437764  -31.721672   -2.548125
  H     15.388686  -33.370171    2.154519
  H     14.785663  -32.158645    1.020087
  H     17.462546  -34.420080    2.221955
  H     18.728010  -34.632683    1.015390
  H     20.880052  -35.110001   -4.644147
  H     23.279967  -30.786871   -0.919866
  H     21.047400  -31.826267   -0.425210
  H     24.843863  -30.348269    0.878775
  H     24.680922  -32.102712    0.683746
  H     23.225821  -30.605982    2.606076
  H     22.442812  -32.151131   -2.589906
  H     23.593800  -36.513048   -0.572246
  H     22.716384  -34.676149    0.852037
  H     20.703143  -29.132647   -3.565620
  H     19.415693  -30.174116   -2.915268
  H     19.340628  -28.407794   -2.674098
  H     20.328150  -30.993304    4.400717
  H     21.744602  -30.089733    4.997080
  H     20.213680  -29.234524    4.686348
  H     19.233877  -37.559754   -1.745999
  H     20.937679  -37.860635   -2.174082
  H     20.538586  -36.666414   -0.914512
  H     22.311211  -32.405659    1.982099
  H     15.186879  -31.697511    3.774206
  H     19.971625  -33.101343    2.170982
  H     24.066160  -36.054500   -4.050359
  H     22.256850  -32.436463   -4.863676
  H     23.947947  -32.027514   -4.451171
  H     23.580144  -32.922616   -5.949989

----------------------------
CARTESIAN COORDINATES (A.U.)
----------------------------
  NO LB      ZA    FRAG     MASS         X           Y           Z
   0 C     6.0000    0    12.011   38.122462  -55.799173   -0.704596
   1 C     6.0000    0    12.011   39.706804  -56.010989    1.391925
   2 C     6.0000    0    12.011   38.665251  -56.190711    3.811126
   3 C     6.0000    0    12.011   36.063124  -56.364952    4.110288
   4 C     6.0000    0    12.011   34.499408  -56.429796    1.989878
   5 C     6.0000    0    12.011   35.514887  -56.037315   -0.403142
   6 C     6.0000    0    12.011   31.816429  -57.338864    2.270180
   7 C     6.0000    0    12.011   31.775944  -60.103314    3.231217
   8 C     6.0000    0    12.011   33.382018  -61.906672    1.581214
   9 C     6.0000    0    12.011   31.988004  -62.920008   -0.782609
  10 C     6.0000    0    12.011   33.723942  -63.470267   -2.979388
  11 C     6.0000    0    12.011   35.109595  -65.721331   -3.136035
  12 C     6.0000    0    12.011   36.743334  -66.155974   -5.141231
  13 C     6.0000    0    12.011   36.987458  -64.353586   -7.068818
  14 C     6.0000    0    12.011   35.623868  -62.130563   -6.931909
  15 C     6.0000    0    12.011   34.011027  -61.694829   -4.896743
  16 C     6.0000    0    12.011   29.075098  -61.038668    3.628304
  17 C     6.0000    0    12.011   34.491044  -64.062220    3.160251
  18 O     8.0000    0    15.999   40.365260  -56.313491    5.742039
  19 O     8.0000    0    15.999   39.316311  -55.553202   -2.966403
  20 O     8.0000    0    15.999   42.276423  -56.149889    1.116838
  21 O     8.0000    0    15.999   38.535002  -64.797044   -9.082644
  22 O     8.0000    0    15.999   38.190343  -68.262999   -5.470870
  23 C     6.0000    0    12.011   43.356112  -58.511143    0.194405
  24 C     6.0000    0    12.011   41.505048  -60.764241    0.124318
  25 C     6.0000    0    12.011   42.588066  -62.906806   -1.448227
  26 C     6.0000    0    12.011   45.655433  -58.949300    1.863437
  27 O     8.0000    0    15.999   44.954471  -59.264620    4.461633
  28 C     6.0000    0    12.011   42.923900  -62.543057   -4.046254
  29 C     6.0000    0    12.011   43.879013  -64.465984   -5.539732
  30 C     6.0000    0    12.011   44.463896  -66.817827   -4.456983
  31 C     6.0000    0    12.011   44.129729  -67.178025   -1.894223
  32 C     6.0000    0    12.011   43.200540  -65.222835   -0.390148
  33 C     6.0000    0    12.011   37.802951  -55.317333   -5.186217
  34 C     6.0000    0    12.011   39.433304  -56.776504    8.233050
  35 C     6.0000    0    12.011   38.211885  -70.119367   -3.518661
  36 O     8.0000    0    15.999   40.774469  -61.580869    2.583813
  37 O     8.0000    0    15.999   27.775890  -59.675835    5.573960
  38 O     8.0000    0    15.999   36.266689  -63.202923    4.997436
  39 O     8.0000    0    15.999   44.308944  -64.323396   -8.075886
  40 O     8.0000    0    15.999   45.337548  -68.744059   -5.933282
  41 C     6.0000    0    12.011   44.018409  -61.928155   -9.283026
  42 H     1.0000    0     1.008   35.258234  -56.656311    5.962216
  43 H     1.0000    0     1.008   34.290198  -56.101222   -2.033810
  44 H     1.0000    0     1.008   30.842088  -57.212947    0.453017
  45 H     1.0000    0     1.008   30.765451  -56.174090    3.611325
  46 H     1.0000    0     1.008   32.671641  -60.096353    5.095684
  47 H     1.0000    0     1.008   34.997399  -60.824074    0.894658
  48 H     1.0000    0     1.008   30.613869  -61.515517   -1.406725
  49 H     1.0000    0     1.008   30.910816  -64.612548   -0.280052
  50 H     1.0000    0     1.008   34.886303  -67.148973   -1.694437
  51 H     1.0000    0     1.008   35.826405  -60.750948   -8.429799
  52 H     1.0000    0     1.008   32.952599  -59.945273   -4.815258
  53 H     1.0000    0     1.008   29.080403  -63.060484    4.071452
  54 H     1.0000    0     1.008   27.940853  -60.771032    1.927684
  55 H     1.0000    0     1.008   32.999430  -65.044525    4.198886
  56 H     1.0000    0     1.008   35.390810  -65.446286    1.918809
  57 H     1.0000    0     1.008   39.457581  -66.348287   -8.776167
  58 H     1.0000    0     1.008   43.992762  -58.178754   -1.738296
  59 H     1.0000    0     1.008   39.773821  -60.142928   -0.803530
  60 H     1.0000    0     1.008   46.948098  -57.349917    1.660644
  61 H     1.0000    0     1.008   46.640183  -60.665334    1.292093
  62 H     1.0000    0     1.008   43.890441  -57.836924    4.924769
  63 H     1.0000    0     1.008   42.410769  -60.756833   -4.894212
  64 H     1.0000    0     1.008   44.585820  -68.999661   -1.081389
  65 H     1.0000    0     1.008   42.927745  -65.528426    1.610117
  66 H     1.0000    0     1.008   39.123270  -55.052724   -6.738045
  67 H     1.0000    0     1.008   36.690342  -57.020816   -5.509059
  68 H     1.0000    0     1.008   36.548490  -53.682951   -5.053313
  69 H     1.0000    0     1.008   38.414636  -58.568856    8.316150
  70 H     1.0000    0     1.008   41.091342  -56.861355    9.443114
  71 H     1.0000    0     1.008   38.198318  -55.245243    8.855915
  72 H     1.0000    0     1.008   36.346761  -70.977649   -3.299459
  73 H     1.0000    0     1.008   39.566479  -71.546232   -4.108420
  74 H     1.0000    0     1.008   38.812302  -69.289481   -1.728176
  75 H     1.0000    0     1.008   42.162078  -61.237820    3.745624
  76 H     1.0000    0     1.008   28.699041  -59.899615    7.132215
  77 H     1.0000    0     1.008   37.740903  -62.552473    4.102561
  78 H     1.0000    0     1.008   45.478452  -68.133130   -7.654069
  79 H     1.0000    0     1.008   42.059351  -61.296032   -9.191017
  80 H     1.0000    0     1.008   45.255062  -60.523231   -8.411494
  81 H     1.0000    0     1.008   44.560015  -62.214728  -11.243851

--------------------------------
INTERNAL COORDINATES (ANGSTROEM)
--------------------------------
 C      0   0   0     0.000000000000     0.00000000     0.00000000
 C      1   0   0     1.395102660934     0.00000000     0.00000000
 C      2   1   0     1.397034397539   119.80800651     0.00000000
 C      3   2   1     1.389120272490   120.00201647     5.22419596
 C      4   3   2     1.394615451971   119.87429464     1.75376137
 C      5   4   3     1.391221066510   119.96649120   352.82698993
 C      5   4   3     1.506376435679   119.20012671   162.95791671
 C      7   5   4     1.548909509306   110.30258829   299.40834429
 C      8   7   5     1.547704304562   112.92443782   306.29849592
 C      9   8   7     1.548038466128   114.06467520   276.17033405
 C     10   9   8     1.509973954702   113.51475750   149.93476572
 C     11  10   9     1.401256799370   121.85873775    81.30928195
 C     12  11  10     1.387900743005   120.80157098   181.69047551
 C     13  12  11     1.402448844828   120.04914042   358.76023120
 C     14  13  12     1.381948440107   119.51747496     1.08753560
 C     11  10   9     1.391127055194   119.84831975   262.42909609
 C      8   7   5     1.527034376060   111.36210359   177.82731350
 C      9   8   7     1.530931229280   111.22281055   149.08744347
 O      3   2   1     1.362929768985   115.45719906   181.90836305
 O      1   2   3     1.359640100672   115.37257331   177.96118883
 O      2   1   3     1.369527005825   121.09558066   177.31835322
 O     14  13  12     1.364317103480   120.42620735   181.85729404
 O     13  12  11     1.363804470073   125.66285885   179.52245592
 C     21   2   1     1.458085461901   118.07564401   285.73992811
 C     24  21   2     1.543511530537   114.91864823   348.59426416
 C     25  24  21     1.518693540914   110.50947584   165.79848007
 C     24  21   2     1.521283642628   104.45722363   223.17286733
 O     27  24  21     1.433806412349   111.56411403    62.60076011
 C     26  25  24     1.399555401479   118.91399807   293.93502788
 C     29  26  25     1.384014936085   120.41028252   180.74591767
 C     30  29  26     1.404624252253   119.93214456     1.42473125
 C     31  30  29     1.380853365932   119.65027912   358.66554165
 C     26  25  24     1.385862925237   121.80962182   115.31343109
 C     20   1   2     1.427157568685   118.17755729   180.25429279
 C     19   3   2     1.428588581178   118.16961821   186.71782524
 C     23  13  12     1.425608609503   118.36979062   354.73886775
 O     25  24  21     1.424827784472   112.61425906   292.04513643
 O     17   8   7     1.432774757403   112.63397198   295.71728134
 O     18   9   8     1.426479025043   112.76707350   294.71709688
 O     30  29  26     1.363311509120   125.61849327   180.66404154
 O     31  30  29     1.364938279722   120.18813630   178.10835075
 C     40  30  29     1.427677931685   118.14014672     7.15443184
 H      4   3   2     1.079621985453   120.26487767   175.02374307
 H      6   5   4     1.079706639843   119.40271384   179.67293078
 H      7   5   4     1.093141862329   109.78338577   178.19760540
 H      7   5   4     1.092199442661   111.32713994    59.55799000
 H      8   7   5     1.094586011674   106.66554504    62.13387497
 H      9   8   7     1.091289911469   107.11414793    33.90389485
 H     10   9   8     1.090973728749   109.04140426    29.89046405
 H     10   9   8     1.094461729773   109.59172514   273.68128230
 H     12  11  10     1.080121434897   119.70706071     2.56039484
 H     15  14  13     1.082944484670   118.93462740   179.98033942
 H     16  11  10     1.082922120136   119.46354693   358.71014448
 H     17   8   7     1.095300404687   110.10140456   172.77706469
 H     17   8   7     1.090958575109   111.05995337    53.51799242
 H     18   9   8     1.093311035814   110.60192020    53.88617720
 H     18   9   8     1.093029470284   109.76759689   172.14467271
 H     22  14  13     0.968760630940   108.51043477   353.48471579
 H     24  21   2     1.091072431441   107.25661878   107.82629882
 H     25  24  21     1.090166416803   108.12924545    48.76892617
 H     27  24  21     1.093507884851   108.98911414   300.63168682
 H     27  24  21     1.089762740757   110.38887235   181.46522705
 H     28  27  24     0.973595994674   107.49948476   307.92892710
 H     29  26  25     1.080990581542   119.74422905   359.94436995
 H     32  31  30     1.082820623803   118.97778304   179.95512722
 H     33  26  25     1.080463318445   119.79613283   359.31185519
 H     34  20   1     1.087253425788   105.80340105   177.26685145
 H     34  20   1     1.090153908425   111.08349232   296.11386643
 H     34  20   1     1.092534841425   110.92847056    58.36192870
 H     35  19   3     1.091839577509   110.89082684    59.12782512
 H     35  19   3     1.087139496034   105.78118662   178.12575591
 H     35  19   3     1.091941221866   110.96901988   296.94884954
 H     36  23  13     1.092643111402   110.86307742    64.79611307
 H     36  23  13     1.086900042759   106.01548277   183.81550112
 H     36  23  13     1.091574268717   110.73802611   302.71697884
 H     37  25  24     0.974741956744   108.37639336   329.95238703
 H     38  17   8     0.965722458199   108.00718129   299.72069935
 H     39  18   9     0.975351680516   107.96620644   292.85635427
 H     41  31  30     0.969159420723   108.34367335     1.62370720
 H     42  40  30     1.090407688807   110.77862869   295.34763088
 H     42  40  30     1.092554336515   110.53352661    57.52707388
 H     42  40  30     1.087107212102   105.95187580   176.51208826

---------------------------
INTERNAL COORDINATES (A.U.)
---------------------------
 C      0   0   0     0.000000000000     0.00000000     0.00000000
 C      1   0   0     2.636361957870     0.00000000     0.00000000
 C      2   1   0     2.640012411016   119.80800651     0.00000000
 C      3   2   1     2.625056882084   120.00201647     5.22419596
 C      4   3   2     2.635441266361   119.87429464     1.75376137
 C      5   4   3     2.629026807445   119.96649120   352.82698993
 C      5   4   3     2.846638918026   119.20012671   162.95791671
 C      7   5   4     2.927014778814   110.30258829   299.40834429
 C      8   7   5     2.924737271914   112.92443782   306.29849592
 C      9   8   7     2.925368745757   114.06467520   276.17033405
 C     10   9   8     2.853437243742   113.51475750   149.93476572
 C     11  10   9     2.647991594104   121.85873775    81.30928195
 C     12  11  10     2.622752305344   120.80157098   181.69047551
 C     13  12  11     2.650244233559   120.04914042   358.76023120
 C     14  13  12     2.611504083001   119.51747496     1.08753560
 C     11  10   9     2.628849151804   119.84831975   262.42909609
 C      8   7   5     2.885676767836   111.36210359   177.82731350
 C      9   8   7     2.893040753207   111.22281055   149.08744347
 O      3   2   1     2.575564003150   115.45719906   181.90836305
 O      1   2   3     2.569347430966   115.37257331   177.96118883
 O      2   1   3     2.588030974018   121.09558066   177.31835322
 O     14  13  12     2.578185685401   120.42620735   181.85729404
 O     13  12  11     2.577216948656   125.66285885   179.52245592
 C     21   2   1     2.755382202845   118.07564401   285.73992811
 C     24  21   2     2.916814077264   114.91864823   348.59426416
 C     25  24  21     2.869914873682   110.50947584   165.79848007
 C     24  21   2     2.874809456581   104.45722363   223.17286733
 O     27  24  21     2.709501448399   111.56411403    62.60076011
 C     26  25  24     2.644776418045   118.91399807   293.93502788
 C     29  26  25     2.615409194456   120.41028252   180.74591767
 C     30  29  26     2.654355157822   119.93214456     1.42473125
 C     31  30  29     2.609434692715   119.65027912   358.66554165
 C     26  25  24     2.618901387852   121.80962182   115.31343109
 C     20   1   2     2.696936954767   118.17755729   180.25429279
 C     19   3   2     2.699641176474   118.16961821   186.71782524
 C     23  13  12     2.694009846122   118.36979062   354.73886775
 O     25  24  21     2.692534300653   112.61425906   292.04513643
 O     17   8   7     2.707551903087   112.63397198   295.71728134
 O     18   9   8     2.695654693114   112.76707350   294.71709688
 O     30  29  26     2.576285387460   125.61849327   180.66404154
 O     31  30  29     2.579359538380   120.18813630   178.10835075
 C     40  30  29     2.697920298327   118.14014672     7.15443184
 H      4   3   2     2.040189880666   120.26487767   175.02374307
 H      6   5   4     2.040349854280   119.40271384   179.67293078
 H      7   5   4     2.065738745326   109.78338577   178.19760540
 H      7   5   4     2.063957830252   111.32713994    59.55799000
 H      8   7   5     2.068467792086   106.66554504    62.13387497
 H      9   8   7     2.062239065388   107.11414793    33.90389485
 H     10   9   8     2.061641566638   109.04140426    29.89046405
 H     10   9   8     2.068232933329   109.59172514   273.68128230
 H     12  11  10     2.041133703333   119.70706071     2.56039484
 H     15  14  13     2.046468494267   118.93462740   179.98033942
 H     16  11  10     2.046426231422   119.46354693   358.71014448
 H     17   8   7     2.069817799231   110.10140456   172.77706469
 H     17   8   7     2.061612930408   111.05995337    53.51799242
 H     18   9   8     2.066058436883   110.60192020    53.88617720
 H     18   9   8     2.065526355141   109.76759689   172.14467271
 H     22  14  13     1.830692281802   108.51043477   353.48471579
 H     24  21   2     2.061828087695   107.25661878   107.82629882
 H     25  24  21     2.060115968156   108.12924545    48.76892617
 H     27  24  21     2.066430427653   108.98911414   300.63168682
 H     27  24  21     2.059353130983   110.38887235   181.46522705
 H     28  27  24     1.839829795016   107.49948476   307.92892710
 H     29  26  25     2.042776152462   119.74422905   359.94436995
 H     32  31  30     2.046234431150   118.97778304   179.95512722
 H     33  26  25     2.041779769608   119.79613283   359.31185519
 H     34  20   1     2.054611212907   105.80340105   177.26685145
 H     34  20   1     2.060092330746   111.08349232   296.11386643
 H     34  20   1     2.064591642060   110.92847056    58.36192870
 H     35  19   3     2.063277783668   110.89082684    59.12782512
 H     35  19   3     2.054395916873   105.78118662   178.12575591
 H     35  19   3     2.063469863666   110.96901988   296.94884954
 H     36  23  13     2.064796242666   110.86307742    64.79611307
 H     36  23  13     2.053943415762   106.01548277   183.81550112
 H     36  23  13     2.062776422710   110.73802611   302.71697884
 H     37  25  24     1.841995349489   108.37639336   329.95238703
 H     38  17   8     1.824950967374   108.00718129   299.72069935
 H     39  18   9     1.843147560435   107.96620644   292.85635427
 H     41  31  30     1.831445885277   108.34367335     1.62370720
 H     42  40  30     2.060571906168   110.77862869   295.34763088
 H     42  40  30     2.064628482442   110.53352661    57.52707388
 H     42  40  30     2.054334909084   105.95187580   176.51208826

---------------------
BASIS SET INFORMATION
---------------------
There are 3 groups of distinct atoms

 Group   1 Type C   : 11s7p2d1f contracted to 4s5p2d1f pattern {7211/31111/11/1}
 Group   2 Type O   : 11s7p2d1f contracted to 4s5p2d1f pattern {7211/31111/11/1}
 Group   3 Type H   : 6s3p1d contracted to 3s2p1d pattern {411/21/1}

Atom   0C    basis set group =>   1
Atom   1C    basis set group =>   1
Atom   2C    basis set group =>   1
Atom   3C    basis set group =>   1
Atom   4C    basis set group =>   1
Atom   5C    basis set group =>   1
Atom   6C    basis set group =>   1
Atom   7C    basis set group =>   1
Atom   8C    basis set group =>   1
Atom   9C    basis set group =>   1
Atom  10C    basis set group =>   1
Atom  11C    basis set group =>   1
Atom  12C    basis set group =>   1
Atom  13C    basis set group =>   1
Atom  14C    basis set group =>   1
Atom  15C    basis set group =>   1
Atom  16C    basis set group =>   1
Atom  17C    basis set group =>   1
Atom  18O    basis set group =>   2
Atom  19O    basis set group =>   2
Atom  20O    basis set group =>   2
Atom  21O    basis set group =>   2
Atom  22O    basis set group =>   2
Atom  23C    basis set group =>   1
Atom  24C    basis set group =>   1
Atom  25C    basis set group =>   1
Atom  26C    basis set group =>   1
Atom  27O    basis set group =>   2
Atom  28C    basis set group =>   1
Atom  29C    basis set group =>   1
Atom  30C    basis set group =>   1
Atom  31C    basis set group =>   1
Atom  32C    basis set group =>   1
Atom  33C    basis set group =>   1
Atom  34C    basis set group =>   1
Atom  35C    basis set group =>   1
Atom  36O    basis set group =>   2
Atom  37O    basis set group =>   2
Atom  38O    basis set group =>   2
Atom  39O    basis set group =>   2
Atom  40O    basis set group =>   2
Atom  41C    basis set group =>   1
Atom  42H    basis set group =>   3
Atom  43H    basis set group =>   3
Atom  44H    basis set group =>   3
Atom  45H    basis set group =>   3
Atom  46H    basis set group =>   3
Atom  47H    basis set group =>   3
Atom  48H    basis set group =>   3
Atom  49H    basis set group =>   3
Atom  50H    basis set group =>   3
Atom  51H    basis set group =>   3
Atom  52H    basis set group =>   3
Atom  53H    basis set group =>   3
Atom  54H    basis set group =>   3
Atom  55H    basis set group =>   3
Atom  56H    basis set group =>   3
Atom  57H    basis set group =>   3
Atom  58H    basis set group =>   3
Atom  59H    basis set group =>   3
Atom  60H    basis set group =>   3
Atom  61H    basis set group =>   3
Atom  62H    basis set group =>   3
Atom  63H    basis set group =>   3
Atom  64H    basis set group =>   3
Atom  65H    basis set group =>   3
Atom  66H    basis set group =>   3
Atom  67H    basis set group =>   3
Atom  68H    basis set group =>   3
Atom  69H    basis set group =>   3
Atom  70H    basis set group =>   3
Atom  71H    basis set group =>   3
Atom  72H    basis set group =>   3
Atom  73H    basis set group =>   3
Atom  74H    basis set group =>   3
Atom  75H    basis set group =>   3
Atom  76H    basis set group =>   3
Atom  77H    basis set group =>   3
Atom  78H    basis set group =>   3
Atom  79H    basis set group =>   3
Atom  80H    basis set group =>   3
Atom  81H    basis set group =>   3
---------------------------------
AUXILIARY/J BASIS SET INFORMATION
---------------------------------
There are 3 groups of distinct atoms

 Group   1 Type C   : 15s13p12d5f5g contracted to 15s13p12d5f5g pattern {111111111111111/1111111111111/111111111111/11111/11111}
 Group   2 Type O   : 15s13p12d5f5g contracted to 15s13p12d5f5g pattern {111111111111111/1111111111111/111111111111/11111/11111}
 Group   3 Type H   : 12s4p3d2f contracted to 12s4p3d2f pattern {111111111111/1111/111/11}

Atom   0C    basis set group =>   1
Atom   1C    basis set group =>   1
Atom   2C    basis set group =>   1
Atom   3C    basis set group =>   1
Atom   4C    basis set group =>   1
Atom   5C    basis set group =>   1
Atom   6C    basis set group =>   1
Atom   7C    basis set group =>   1
Atom   8C    basis set group =>   1
Atom   9C    basis set group =>   1
Atom  10C    basis set group =>   1
Atom  11C    basis set group =>   1
Atom  12C    basis set group =>   1
Atom  13C    basis set group =>   1
Atom  14C    basis set group =>   1
Atom  15C    basis set group =>   1
Atom  16C    basis set group =>   1
Atom  17C    basis set group =>   1
Atom  18O    basis set group =>   2
Atom  19O    basis set group =>   2
Atom  20O    basis set group =>   2
Atom  21O    basis set group =>   2
Atom  22O    basis set group =>   2
Atom  23C    basis set group =>   1
Atom  24C    basis set group =>   1
Atom  25C    basis set group =>   1
Atom  26C    basis set group =>   1
Atom  27O    basis set group =>   2
Atom  28C    basis set group =>   1
Atom  29C    basis set group =>   1
Atom  30C    basis set group =>   1
Atom  31C    basis set group =>   1
Atom  32C    basis set group =>   1
Atom  33C    basis set group =>   1
Atom  34C    basis set group =>   1
Atom  35C    basis set group =>   1
Atom  36O    basis set group =>   2
Atom  37O    basis set group =>   2
Atom  38O    basis set group =>   2
Atom  39O    basis set group =>   2
Atom  40O    basis set group =>   2
Atom  41C    basis set group =>   1
Atom  42H    basis set group =>   3
Atom  43H    basis set group =>   3
Atom  44H    basis set group =>   3
Atom  45H    basis set group =>   3
Atom  46H    basis set group =>   3
Atom  47H    basis set group =>   3
Atom  48H    basis set group =>   3
Atom  49H    basis set group =>   3
Atom  50H    basis set group =>   3
Atom  51H    basis set group =>   3
Atom  52H    basis set group =>   3
Atom  53H    basis set group =>   3
Atom  54H    basis set group =>   3
Atom  55H    basis set group =>   3
Atom  56H    basis set group =>   3
Atom  57H    basis set group =>   3
Atom  58H    basis set group =>   3
Atom  59H    basis set group =>   3
Atom  60H    basis set group =>   3
Atom  61H    basis set group =>   3
Atom  62H    basis set group =>   3
Atom  63H    basis set group =>   3
Atom  64H    basis set group =>   3
Atom  65H    basis set group =>   3
Atom  66H    basis set group =>   3
Atom  67H    basis set group =>   3
Atom  68H    basis set group =>   3
Atom  69H    basis set group =>   3
Atom  70H    basis set group =>   3
Atom  71H    basis set group =>   3
Atom  72H    basis set group =>   3
Atom  73H    basis set group =>   3
Atom  74H    basis set group =>   3
Atom  75H    basis set group =>   3
Atom  76H    basis set group =>   3
Atom  77H    basis set group =>   3
Atom  78H    basis set group =>   3
Atom  79H    basis set group =>   3
Atom  80H    basis set group =>   3
Atom  81H    basis set group =>   3
---------------------------------
AUXILIARY/C BASIS SET INFORMATION
---------------------------------
There are 3 groups of distinct atoms

 Group   1 Type C   : 15s13p12d5f5g contracted to 15s13p12d5f5g pattern {111111111111111/1111111111111/111111111111/11111/11111}
 Group   2 Type O   : 15s13p12d5f5g contracted to 15s13p12d5f5g pattern {111111111111111/1111111111111/111111111111/11111/11111}
 Group   3 Type H   : 12s4p3d2f contracted to 12s4p3d2f pattern {111111111111/1111/111/11}

Atom   0C    basis set group =>   1
Atom   1C    basis set group =>   1
Atom   2C    basis set group =>   1
Atom   3C    basis set group =>   1
Atom   4C    basis set group =>   1
Atom   5C    basis set group =>   1
Atom   6C    basis set group =>   1
Atom   7C    basis set group =>   1
Atom   8C    basis set group =>   1
Atom   9C    basis set group =>   1
Atom  10C    basis set group =>   1
Atom  11C    basis set group =>   1
Atom  12C    basis set group =>   1
Atom  13C    basis set group =>   1
Atom  14C    basis set group =>   1
Atom  15C    basis set group =>   1
Atom  16C    basis set group =>   1
Atom  17C    basis set group =>   1
Atom  18O    basis set group =>   2
Atom  19O    basis set group =>   2
Atom  20O    basis set group =>   2
Atom  21O    basis set group =>   2
Atom  22O    basis set group =>   2
Atom  23C    basis set group =>   1
Atom  24C    basis set group =>   1
Atom  25C    basis set group =>   1
Atom  26C    basis set group =>   1
Atom  27O    basis set group =>   2
Atom  28C    basis set group =>   1
Atom  29C    basis set group =>   1
Atom  30C    basis set group =>   1
Atom  31C    basis set group =>   1
Atom  32C    basis set group =>   1
Atom  33C    basis set group =>   1
Atom  34C    basis set group =>   1
Atom  35C    basis set group =>   1
Atom  36O    basis set group =>   2
Atom  37O    basis set group =>   2
Atom  38O    basis set group =>   2
Atom  39O    basis set group =>   2
Atom  40O    basis set group =>   2
Atom  41C    basis set group =>   1
Atom  42H    basis set group =>   3
Atom  43H    basis set group =>   3
Atom  44H    basis set group =>   3
Atom  45H    basis set group =>   3
Atom  46H    basis set group =>   3
Atom  47H    basis set group =>   3
Atom  48H    basis set group =>   3
Atom  49H    basis set group =>   3
Atom  50H    basis set group =>   3
Atom  51H    basis set group =>   3
Atom  52H    basis set group =>   3
Atom  53H    basis set group =>   3
Atom  54H    basis set group =>   3
Atom  55H    basis set group =>   3
Atom  56H    basis set group =>   3
Atom  57H    basis set group =>   3
Atom  58H    basis set group =>   3
Atom  59H    basis set group =>   3
Atom  60H    basis set group =>   3
Atom  61H    basis set group =>   3
Atom  62H    basis set group =>   3
Atom  63H    basis set group =>   3
Atom  64H    basis set group =>   3
Atom  65H    basis set group =>   3
Atom  66H    basis set group =>   3
Atom  67H    basis set group =>   3
Atom  68H    basis set group =>   3
Atom  69H    basis set group =>   3
Atom  70H    basis set group =>   3
Atom  71H    basis set group =>   3
Atom  72H    basis set group =>   3
Atom  73H    basis set group =>   3
Atom  74H    basis set group =>   3
Atom  75H    basis set group =>   3
Atom  76H    basis set group =>   3
Atom  77H    basis set group =>   3
Atom  78H    basis set group =>   3
Atom  79H    basis set group =>   3
Atom  80H    basis set group =>   3
Atom  81H    basis set group =>   3
----------------------------------
AUXILIARY/JK BASIS SET INFORMATION
----------------------------------
There are 3 groups of distinct atoms

 Group   1 Type C   : 15s13p12d5f5g contracted to 15s13p12d5f5g pattern {111111111111111/1111111111111/111111111111/11111/11111}
 Group   2 Type O   : 15s13p12d5f5g contracted to 15s13p12d5f5g pattern {111111111111111/1111111111111/111111111111/11111/11111}
 Group   3 Type H   : 12s4p3d2f contracted to 12s4p3d2f pattern {111111111111/1111/111/11}

Atom   0C    basis set group =>   1
Atom   1C    basis set group =>   1
Atom   2C    basis set group =>   1
Atom   3C    basis set group =>   1
Atom   4C    basis set group =>   1
Atom   5C    basis set group =>   1
Atom   6C    basis set group =>   1
Atom   7C    basis set group =>   1
Atom   8C    basis set group =>   1
Atom   9C    basis set group =>   1
Atom  10C    basis set group =>   1
Atom  11C    basis set group =>   1
Atom  12C    basis set group =>   1
Atom  13C    basis set group =>   1
Atom  14C    basis set group =>   1
Atom  15C    basis set group =>   1
Atom  16C    basis set group =>   1
Atom  17C    basis set group =>   1
Atom  18O    basis set group =>   2
Atom  19O    basis set group =>   2
Atom  20O    basis set group =>   2
Atom  21O    basis set group =>   2
Atom  22O    basis set group =>   2
Atom  23C    basis set group =>   1
Atom  24C    basis set group =>   1
Atom  25C    basis set group =>   1
Atom  26C    basis set group =>   1
Atom  27O    basis set group =>   2
Atom  28C    basis set group =>   1
Atom  29C    basis set group =>   1
Atom  30C    basis set group =>   1
Atom  31C    basis set group =>   1
Atom  32C    basis set group =>   1
Atom  33C    basis set group =>   1
Atom  34C    basis set group =>   1
Atom  35C    basis set group =>   1
Atom  36O    basis set group =>   2
Atom  37O    basis set group =>   2
Atom  38O    basis set group =>   2
Atom  39O    basis set group =>   2
Atom  40O    basis set group =>   2
Atom  41C    basis set group =>   1
Atom  42H    basis set group =>   3
Atom  43H    basis set group =>   3
Atom  44H    basis set group =>   3
Atom  45H    basis set group =>   3
Atom  46H    basis set group =>   3
Atom  47H    basis set group =>   3
Atom  48H    basis set group =>   3
Atom  49H    basis set group =>   3
Atom  50H    basis set group =>   3
Atom  51H    basis set group =>   3
Atom  52H    basis set group =>   3
Atom  53H    basis set group =>   3
Atom  54H    basis set group =>   3
Atom  55H    basis set group =>   3
Atom  56H    basis set group =>   3
Atom  57H    basis set group =>   3
Atom  58H    basis set group =>   3
Atom  59H    basis set group =>   3
Atom  60H    basis set group =>   3
Atom  61H    basis set group =>   3
Atom  62H    basis set group =>   3
Atom  63H    basis set group =>   3
Atom  64H    basis set group =>   3
Atom  65H    basis set group =>   3
Atom  66H    basis set group =>   3
Atom  67H    basis set group =>   3
Atom  68H    basis set group =>   3
Atom  69H    basis set group =>   3
Atom  70H    basis set group =>   3
Atom  71H    basis set group =>   3
Atom  72H    basis set group =>   3
Atom  73H    basis set group =>   3
Atom  74H    basis set group =>   3
Atom  75H    basis set group =>   3
Atom  76H    basis set group =>   3
Atom  77H    basis set group =>   3
Atom  78H    basis set group =>   3
Atom  79H    basis set group =>   3
Atom  80H    basis set group =>   3
Atom  81H    basis set group =>   3
---------------------------------
AUXILIARY/X BASIS SET INFORMATION
---------------------------------
There are 3 groups of distinct atoms

 Group   1 Type C   : 15s13p12d5f5g contracted to 15s13p12d5f5g pattern {111111111111111/1111111111111/111111111111/11111/11111}
 Group   2 Type O   : 15s13p12d5f5g contracted to 15s13p12d5f5g pattern {111111111111111/1111111111111/111111111111/11111/11111}
 Group   3 Type H   : 12s4p3d2f contracted to 12s4p3d2f pattern {111111111111/1111/111/11}

Atom   0C    basis set group =>   1
Atom   1C    basis set group =>   1
Atom   2C    basis set group =>   1
Atom   3C    basis set group =>   1
Atom   4C    basis set group =>   1
Atom   5C    basis set group =>   1
Atom   6C    basis set group =>   1
Atom   7C    basis set group =>   1
Atom   8C    basis set group =>   1
Atom   9C    basis set group =>   1
Atom  10C    basis set group =>   1
Atom  11C    basis set group =>   1
Atom  12C    basis set group =>   1
Atom  13C    basis set group =>   1
Atom  14C    basis set group =>   1
Atom  15C    basis set group =>   1
Atom  16C    basis set group =>   1
Atom  17C    basis set group =>   1
Atom  18O    basis set group =>   2
Atom  19O    basis set group =>   2
Atom  20O    basis set group =>   2
Atom  21O    basis set group =>   2
Atom  22O    basis set group =>   2
Atom  23C    basis set group =>   1
Atom  24C    basis set group =>   1
Atom  25C    basis set group =>   1
Atom  26C    basis set group =>   1
Atom  27O    basis set group =>   2
Atom  28C    basis set group =>   1
Atom  29C    basis set group =>   1
Atom  30C    basis set group =>   1
Atom  31C    basis set group =>   1
Atom  32C    basis set group =>   1
Atom  33C    basis set group =>   1
Atom  34C    basis set group =>   1
Atom  35C    basis set group =>   1
Atom  36O    basis set group =>   2
Atom  37O    basis set group =>   2
Atom  38O    basis set group =>   2
Atom  39O    basis set group =>   2
Atom  40O    basis set group =>   2
Atom  41C    basis set group =>   1
Atom  42H    basis set group =>   3
Atom  43H    basis set group =>   3
Atom  44H    basis set group =>   3
Atom  45H    basis set group =>   3
Atom  46H    basis set group =>   3
Atom  47H    basis set group =>   3
Atom  48H    basis set group =>   3
Atom  49H    basis set group =>   3
Atom  50H    basis set group =>   3
Atom  51H    basis set group =>   3
Atom  52H    basis set group =>   3
Atom  53H    basis set group =>   3
Atom  54H    basis set group =>   3
Atom  55H    basis set group =>   3
Atom  56H    basis set group =>   3
Atom  57H    basis set group =>   3
Atom  58H    basis set group =>   3
Atom  59H    basis set group =>   3
Atom  60H    basis set group =>   3
Atom  61H    basis set group =>   3
Atom  62H    basis set group =>   3
Atom  63H    basis set group =>   3
Atom  64H    basis set group =>   3
Atom  65H    basis set group =>   3
Atom  66H    basis set group =>   3
Atom  67H    basis set group =>   3
Atom  68H    basis set group =>   3
Atom  69H    basis set group =>   3
Atom  70H    basis set group =>   3
Atom  71H    basis set group =>   3
Atom  72H    basis set group =>   3
Atom  73H    basis set group =>   3
Atom  74H    basis set group =>   3
Atom  75H    basis set group =>   3
Atom  76H    basis set group =>   3
Atom  77H    basis set group =>   3
Atom  78H    basis set group =>   3
Atom  79H    basis set group =>   3
Atom  80H    basis set group =>   3
Atom  81H    basis set group =>   3
--------------------------------------------------------------------------
WARNING: There was an error initializing an OpenFabrics device.

  Local host:   c01b01n07
  Local device: mlx5_0
--------------------------------------------------------------------------
--------------------------------------------------------------------------
WARNING: There is at least one non-excluded one OpenFabrics device found,
but there are no active ports detected (or Open MPI was unable to use
them).  This is most certainly not what you wanted.  Check your
cables, subnet manager configuration, etc.  The openib BTL will be
ignored for this job.

  Local host: c01b01n07
--------------------------------------------------------------------------
[c01b01n07:532765] 51 more processes have sent help message help-mpi-btl-openib.txt / error in device init
[c01b01n07:532765] Set MCA parameter "orte_base_help_aggregate" to 0 to see all help / error messages
[c01b01n07:532765] 7 more processes have sent help message help-mpi-btl-openib.txt / no active ports found


           ************************************************************
           *        Program running with 60 parallel MPI-processes    *
           *              working on a common directory               *
           ************************************************************
------------------------------------------------------------------------------
                             ORCA STARTUP CALCULATIONS
                           -- RI-GTO INTEGRALS CHOSEN --
------------------------------------------------------------------------------
------------------------------------------------------------------------------
                   ___                                                        
                  /   \      - P O W E R E D   B Y -                         
                 /     \                                                     
                 |  |  |   _    _      __       _____    __    __             
                 |  |  |  | |  | |    /  \     |  _  \  |  |  /  |          
                  \  \/   | |  | |   /    \    | | | |  |  | /  /          
                 / \  \   | |__| |  /  /\  \   | |_| |  |  |/  /          
                |  |  |   |  __  | /  /__\  \  |    /   |      \           
                |  |  |   | |  | | |   __   |  |    \   |  |\   \          
                \     /   | |  | | |  |  |  |  | |\  \  |  | \   \       
                 \___/    |_|  |_| |__|  |__|  |_| \__\ |__|  \__/        
                                                                              
                      - O R C A' S   B I G   F R I E N D -                    
                                      &                                       
                       - I N T E G R A L  F E E D E R -                       
                                                                              
 v1 FN, 2020, v2 2021, v3 2022-2024                                           
------------------------------------------------------------------------------


----------------------
SHARK INTEGRAL PACKAGE
----------------------

Number of atoms                             ...     82
Number of basis functions                   ...   2072
Number of shells                            ...    744
Maximum angular momentum                    ...      3
Integral batch strategy                     ... SHARK/LIBINT Hybrid
RI-J (if used) integral strategy            ... SPLIT-RIJ (Revised 2003 algorithm where possible)
Printlevel                                  ...      1
Contraction scheme used                     ... SEGMENTED contraction
Prescreening option                         ... SCHWARTZ
   Thresh                                   ... 1.000e-10
   Tcut                                     ... 1.000e-11
   Tpresel                                  ... 1.000e-11 
Coulomb Range Separation                    ... NOT USED
Exchange Range Separation                   ... NOT USED
Multipole approximations                    ... NOT USED
Finite Nucleus Model                        ... NOT USED
CABS basis                                  ... NOT available
Auxiliary Coulomb fitting basis             ... AVAILABLE
   # of basis functions in Aux-J            ...  10268
   # of shells in Aux-J                     ...   2940
   Maximum angular momentum in Aux-J        ...      4
Auxiliary J/K fitting basis                 ... AVAILABLE
   # of basis functions in Aux-JK           ...  10268
   # of shells in Aux-JK                    ...   2940
   Maximum angular momentum in Aux-JK       ...      4
Auxiliary Correlation fitting basis         ... AVAILABLE
   # of basis functions in Aux-C            ...  10268
   # of shells in Aux-C                     ...   2940
   Maximum angular momentum in Aux-C        ...      4
Auxiliary 'external' fitting basis          ... NOT available

Checking pre-screening integrals            ... done (  0.0 sec) Dimension = 744
   => SHARK Basis and OBASIS are compatible. Storing Pre-screening
Shell pair information
Shell pair cut-off parameter TPreSel        ...   1.0e-11
Total number of shell pairs                 ...    277140
Shell pairs after pre-screening             ...    153458
Total number of primitive shell pairs       ...    823733
Primitive shell pairs kept                  ...    280782
          la=0 lb=0:  29292 shell pairs
          la=1 lb=0:  51106 shell pairs
          la=1 lb=1:  20777 shell pairs
          la=2 lb=0:  20146 shell pairs
          la=2 lb=1:  15157 shell pairs
          la=2 lb=2:   2709 shell pairs
          la=3 lb=0:   6969 shell pairs
          la=3 lb=1:   5189 shell pairs
          la=3 lb=2:   1778 shell pairs
          la=3 lb=3:    335 shell pairs

Checking whether 4 symmetric matrices of dimension 2072 fit in memory
:Max Core in MB      =   5000.00
 MB in use           =    189.18
 MB left             =   4810.82
 MB needed           =     65.54
 Data fit in memory  = YES
Calculating RI/J V-Matrix + Cholesky decomp.... done (  6.4 sec)
Calculating RI/JK V-Matrix + Cholesky decomp.... done (  3.9 sec)
Calculating RI/C V-Matrix + Cholesky decomp.... done (  5.5 sec)
Calculating Nuclear repulsion               ... done (  0.0 sec) ENN=   5757.851558079939 Eh

Diagonalization of the overlap matrix:
Smallest eigenvalue                        ... 9.442e-06
Time for diagonalization                   ...    6.847 sec
Threshold for overlap eigenvalues          ... 1.000e-07
Number of eigenvalues below threshold      ... 0
Time for construction of square roots      ...    0.650 sec
Total time needed                          ...    7.527 sec

-------------------
DFT GRID GENERATION
-------------------

General Integration Accuracy     IntAcc      ... 4.388
Radial Grid Type                 RadialGrid  ... OptM3 with GC (2021)
Angular Grid (max. ang.)         AngularGrid ... 4 (Lebedev-302)
Angular grid pruning method      GridPruning ... 4 (adaptive)
Weight generation scheme         WeightScheme... mBecke (2022)
Basis function cutoff            BFCut       ... 1.0000e-10
Integration weight cutoff        WCut        ... 1.0000e-14
Partially contracted basis set               ... off
Rotationally invariant grid construction     ... off
Angular grids for H and He will be reduced by one unit
Diffuse basis detected: some atoms will have their outermost
                        angular grid increased by 1.

Total number of grid points                  ...   376569
Total number of batches                      ...     5929
Average number of points per batch           ...       63
Average number of grid points per atom       ...     4592
Grids setup in   2.0 sec
Initializing property integral containers    ... done (  0.1 sec)

SHARK setup successfully completed in  33.8 seconds

Maximum memory used throughout the entire STARTUP-calculation: 261.2 MB
--------------------------------------------------------------------------
WARNING: There was an error initializing an OpenFabrics device.

  Local host:   c01b01n07
  Local device: mlx5_0
--------------------------------------------------------------------------
--------------------------------------------------------------------------
WARNING: There is at least one non-excluded one OpenFabrics device found,
but there are no active ports detected (or Open MPI was unable to use
them).  This is most certainly not what you wanted.  Check your
cables, subnet manager configuration, etc.  The openib BTL will be
ignored for this job.

  Local host: c01b01n07
--------------------------------------------------------------------------


           ************************************************************
           *        Program running with 60 parallel MPI-processes    *
           *              working on a common directory               *
           ************************************************************
-------------------------------------------------------------------------------
                                 ORCA GUESS
                   Start orbitals & Density for SCF / CASSCF
-------------------------------------------------------------------------------

------------
SCF SETTINGS
------------
Hamiltonian:
 Density Functional     Method          .... DFT(GTOs)
 Exchange Functional    Exchange        .... TPSS
 Correlation Functional Correlation     .... TPSS
 LDA part of GGA corr.  LDAOpt          .... PW91-LDA
 Gradients option       PostSCFGGA      .... off
   NL short-range parameter             ....  5.000000
 RI-approximation to the Coulomb term is turned on
   Number of AuxJ basis functions       .... 10268


General Settings:
 Integral files         IntName         .... nmr-conf-13
 Hartree-Fock type      HFTyp           .... RHF
 Total Charge           Charge          ....    0
 Multiplicity           Mult            ....    1
 Number of Electrons    NEL             ....  314
 Basis Dimension        Dim             .... 2072
 Nuclear Repulsion      ENuc            ....   5757.8515580799 Eh

Convergence Acceleration:
 AO-DIIS                CNVDIIS         .... on
   Start iteration      DIISMaxIt       ....    12
   Startup error        DIISStart       ....  0.200000
   # of expansion vecs  DIISMaxEq       ....     5
   Bias factor          DIISBfac        ....   1.050
   Max. coefficient     DIISMaxC        ....  10.000
 MO-DIIS                CNVKDIIS        .... off
 Trust-Rad. Augm. Hess. CNVTRAH         .... auto
   Auto Start mean grad. ratio tolernc. ....  1.125000
   Auto Start start iteration           ....    50
   Auto Start num. interpolation iter.  ....    10
   Max. Number of Micro iterations      ....    24
   Max. Number of Macro iterations      .... Maxiter - #DIIS iter
   Number of Davidson start vectors     ....     2
   Converg. threshold    (grad. norm)   ....   5.000e-05
   Grad. Scal. Fac. for Micro threshold ....   0.100
   Minimum threshold for Micro iter.    ....   1.000e-02
   NR start threshold (gradient norm)   ....   1.000e-04
   Initial trust radius                 ....   0.400
   Minimum AH scaling param. (alpha)    ....   1.000
   Maximum AH scaling param. (alpha)    .... 1000.000
   Quad. conv. algorithm                .... NR
   White noise on init. David. guess    .... on
   Maximum white noise                  ....   0.010
   Pseudo random numbers                .... off
   Inactive MOs                         .... canonical
   Orbital update algorithm             .... Taylor
   Preconditioner                       .... Diag
   Full preconditioner red. dimension   ....   250
 SOSCF                 CNVSOSCF           .... on
   Start iteration     SOSCFMaxIt         ....   150
   Startup grad/error  SOSCFStart         ....  0.003300
   Hessian update      SOSCFHessUp        .... L-BFGS
   Autom. constraints  SOSCFAutoConstrain .... off
 Level Shifting         CNVShift        .... on
   Level shift para.    LevelShift      ....    0.2500
   Turn off err/grad.   ShiftErr        ....    0.0010
 Zerner damping         CNVZerner       .... off
 Static damping         CNVDamp         .... on
   Fraction old density DampFac         ....    0.7000
   Max. Damping (<1)    DampMax         ....    0.9800
   Min. Damping (>=0)   DampMin         ....    0.0000
   Turn off err/grad.   DampErr         ....    0.1000

SCF Procedure:
 Maximum # iterations   MaxIter         ....   125
 SCF integral mode      SCFMode         .... Direct
   Integral package                     .... SHARK and LIBINT hybrid scheme
 Reset frequency        DirectResetFreq ....    20
 Integral Threshold     Thresh          ....  1.000e-10 Eh
 Primitive CutOff       TCut            ....  1.000e-11 Eh

Convergence Tolerance:
 Convergence Check Mode ConvCheckMode   .... Total+1el-Energy
 Convergence forced     ConvForced      .... 0
 Energy Change          TolE            ....  1.000e-06 Eh
 1-El. energy change                    ....  1.000e-03 Eh
 Orbital Gradient       TolG            ....  5.000e-05
 Orbital Rotation angle TolX            ....  5.000e-05
 DIIS Error             TolErr          ....  1.000e-06

------------------------------
INITIAL GUESS: MODEL POTENTIAL
------------------------------
Loading Hartree-Fock densities                     ... done
Calculating cut-offs                               ... done
Initializing the effective Hamiltonian             ... done
Setting up the integral package (SHARK)            ... done
Starting the Coulomb interaction                   ... done (   0.7 sec)
Making the grid                                    ... done (   0.7 sec)
Mapping shells                                     ... done
Starting the XC term evaluation                    ... done (   0.1 sec)
  promolecular density results
     # of electrons  =    313.975458135
     EX              =   -260.295160341
     EC              =    -10.641455166
     EX+EC           =   -270.936615507
Transforming the Hamiltonian                       ... done (   0.3 sec)
Diagonalizing the Hamiltonian                      ... done (   0.6 sec)
[c01b01n07:533165] 52 more processes have sent help message help-mpi-btl-openib.txt / error in device init
[c01b01n07:533165] Set MCA parameter "orte_base_help_aggregate" to 0 to see all help / error messages
[c01b01n07:533165] 6 more processes have sent help message help-mpi-btl-openib.txt / no active ports found
Back transforming the eigenvectors                 ... done (   0.2 sec)
Now organizing SCF variables                       ... done
                      ------------------
                      INITIAL GUESS DONE (   3.6 sec)
                      ------------------
             **** ENERGY FILE WAS UPDATED (nmr-conf-13.en.tmp) ****
Finished Guess after   9.4 sec
Maximum memory used throughout the entire GUESS-calculation: 294.4 MB
--------------------------------------------------------------------------
WARNING: There was an error initializing an OpenFabrics device.

  Local host:   c01b01n07
  Local device: mlx5_0
--------------------------------------------------------------------------
--------------------------------------------------------------------------
WARNING: There is at least one non-excluded one OpenFabrics device found,
but there are no active ports detected (or Open MPI was unable to use
them).  This is most certainly not what you wanted.  Check your
cables, subnet manager configuration, etc.  The openib BTL will be
ignored for this job.

  Local host: c01b01n07
--------------------------------------------------------------------------


           ************************************************************
           *        Program running with 60 parallel MPI-processes    *
           *              working on a common directory               *
           ************************************************************

-------------------------------------------------------------------------------------------
                                      ORCA LEAN-SCF
                              memory conserving SCF solver
-------------------------------------------------------------------------------------------

--------------------
CPCM SOLVATION MODEL
--------------------
CPCM parameters:
  Epsilon                                         ...      33.4280
  Refrac                                          ...       1.3288
  Rsolv                                           ...       1.3000
  Surface type                                    ... GAUSSIAN VDW
  Discretization scheme                           ... Constant charge density
    Threshold for H atoms                         ...       5.0000 (charges/Ang^2)
    Threshold for non-H atoms                     ...       5.0000 (charges/Ang^2)
  Epsilon function type                           ...         CPCM
Solvent:                                          ... METHANOL
Radii:
  Scheme                                          ... Element-dependent radii
  Radius for C  used is    3.8550 Bohr (=   2.0400 Ang.)
  Radius for O  used is    3.4469 Bohr (=   1.8240 Ang.)
  Radius for H  used is    2.4944 Bohr (=   1.3200 Ang.)
Calculating surface                               ...        done! (  0.0s)
Cavity surface points                             ...         6241
Cavity Volume                                     ...    4524.2432
Cavity Surface-area                               ...    2077.9397
Calculating surface distance matrix               ...        done! (  0.2s)
Performing Cholesky decomposition & store         ...        done! (  0.9s)
Overall time for CPCM initialization              ...                 1.1s

----------------------------------------D-I-I-S--------------------------------------------
Iteration    Energy (Eh)           Delta-E    RMSDP     MaxDP     DIISErr   Damp  Time(sec)
-------------------------------------------------------------------------------------------
               ***  Starting incremental Fock matrix formation  ***
[c01b01n07:533682] 53 more processes have sent help message help-mpi-btl-openib.txt / error in device init
[c01b01n07:533682] Set MCA parameter "orte_base_help_aggregate" to 0 to see all help / error messages
[c01b01n07:533682] 5 more processes have sent help message help-mpi-btl-openib.txt / no active ports found
    1    -2033.0231770433783822     0.00e+00  7.73e-03  3.07e-01  2.34e-01  0.700  10.9
    2    -2033.4274142419317286    -4.04e-01  6.34e-03  2.45e-01  8.23e-02  0.700   8.7
                               ***Turning on AO-DIIS***
    3    -2033.5790875578804844    -1.52e-01  2.82e-03  8.43e-02  2.49e-02  0.700   8.2
    4    -2033.6705145701325819    -9.14e-02  4.71e-03  8.42e-02  1.17e-02  0.000   6.7
    5    -2033.8727505218930673    -2.02e-01  1.24e-03  3.84e-02  4.86e-03  0.000   6.6
                              *** Initializing SOSCF ***
---------------------------------------S-O-S-C-F--------------------------------------
Iteration    Energy (Eh)           Delta-E    RMSDP     MaxDP     MaxGrad    Time(sec)
--------------------------------------------------------------------------------------
    6    -2033.8741229954157461    -1.37e-03  3.93e-04  8.16e-03  1.63e-03     7.5
               *** Restarting incremental Fock matrix formation ***
    7    -2033.8742339199561684    -1.11e-04  3.14e-04  8.02e-03  1.27e-04     6.6
    8    -2033.8742070425223574     2.69e-05  8.15e-05  2.49e-03  5.49e-04     5.6
    9    -2033.8742490606919091    -4.20e-05  6.39e-05  1.05e-03  1.08e-04     5.6
   10    -2033.8742480897990390     9.71e-07  2.08e-05  6.47e-04  1.05e-04     5.4
                 **** Energy Check signals convergence ****

               *****************************************************
               *                     SUCCESS                       *
               *           SCF CONVERGED AFTER  10 CYCLES          *
               *****************************************************

             **** ENERGY FILE WAS UPDATED (nmr-conf-13.en.tmp) ****

----------------
TOTAL SCF ENERGY
----------------

Total Energy       :      -2033.87424893411298 Eh          -55344.53198 eV

Components:
Nuclear Repulsion  :       5757.85155807993851 Eh          156679.10631 eV
Electronic Energy  :      -7791.68479332062634 Eh         -212022.52224 eV
One Electron Energy:     -14244.17136624845625 Eh         -387603.60826 eV
Two Electron Energy:       6452.48657292782991 Eh          175581.08602 eV
CPCM Dielectric    :         -0.04101369342511 Eh              -1.11604 eV

Virial components:
Potential Energy   :      -4061.11655838543538 Eh         -110508.59970 eV
Kinetic Energy     :       2027.24230945132240 Eh           55164.06773 eV
Virial Ratio       :          2.00327140936822

DFT components:
N(Alpha)           :      157.000216415814 electrons
N(Beta)            :      157.000216415814 electrons
N(Total)           :      314.000432831629 electrons
E(X)               :     -268.092349807263 Eh       
E(C)               :      -10.606365932167 Eh       
E(XC)              :     -278.698715739430 Eh       

CPCM Solvation Model Properties:
Surface-charge          :         -0.04210706541210
Corrected charge        :         -0.00000000000000
Outlying charge corr.   :          0.00007708320265 Eh               0.00210 eV
Free-energy (cav+disp)  :  This term is not implemented in the current solvation scheme

---------------
SCF CONVERGENCE
---------------

  Last Energy change         ...   -9.7089e-07  Tolerance :   1.0000e-06
  Last MAX-Density change    ...    6.4747e-04  Tolerance :   1.0000e-05
  Last RMS-Density change    ...    2.0762e-05  Tolerance :   1.0000e-06
  Last DIIS Error            ...    1.6297e-03  Tolerance :   1.0000e-06
  Last Orbital Gradient      ...    1.0522e-04  Tolerance :   5.0000e-05
  Last Orbital Rotation      ...    2.1474e-04  Tolerance :   5.0000e-05


----------------
ORBITAL ENERGIES
----------------

  NO   OCC          E(Eh)            E(eV) 
   0   2.0000     -18.918126      -514.7884 
   1   2.0000     -18.917881      -514.7817 
   2   2.0000     -18.915928      -514.7286 
   3   2.0000     -18.913401      -514.6598 
   4   2.0000     -18.910352      -514.5768 
   5   2.0000     -18.907109      -514.4886 
   6   2.0000     -18.901034      -514.3233 
   7   2.0000     -18.890600      -514.0394 
   8   2.0000     -18.882760      -513.8260 
   9   2.0000     -18.878024      -513.6972 
  10   2.0000     -18.863745      -513.3086 
  11   2.0000     -10.048991      -273.4469 
  12   2.0000     -10.048650      -273.4377 
  13   2.0000     -10.045822      -273.3607 
  14   2.0000     -10.044963      -273.3373 
  15   2.0000     -10.044832      -273.3338 
  16   2.0000     -10.042430      -273.2684 
  17   2.0000     -10.042218      -273.2626 
  18   2.0000     -10.039497      -273.1886 
  19   2.0000     -10.037204      -273.1262 
  20   2.0000     -10.035193      -273.0715 
  21   2.0000     -10.034278      -273.0466 
  22   2.0000     -10.034061      -273.0407 
  23   2.0000     -10.032629      -273.0017 
  24   2.0000     -10.031627      -272.9744 
  25   2.0000     -10.024795      -272.7885 
  26   2.0000     -10.019686      -272.6495 
  27   2.0000      -9.992081      -271.8983 
  28   2.0000      -9.989892      -271.8388 
  29   2.0000      -9.986914      -271.7577 
  30   2.0000      -9.986464      -271.7455 
  31   2.0000      -9.983856      -271.6745 
  32   2.0000      -9.983177      -271.6560 
  33   2.0000      -9.982922      -271.6491 
  34   2.0000      -9.982887      -271.6482 
  35   2.0000      -9.981583      -271.6127 
  36   2.0000      -9.981538      -271.6115 
  37   2.0000      -9.981368      -271.6068 
  38   2.0000      -9.980411      -271.5808 
  39   2.0000      -9.977651      -271.5057 
  40   2.0000      -9.977551      -271.5030 
  41   2.0000      -9.976479      -271.4738 
  42   2.0000      -1.011878       -27.5346 
  43   2.0000      -1.011524       -27.5250 
  44   2.0000      -1.009227       -27.4625 
  45   2.0000      -1.000415       -27.2227 
  46   2.0000      -0.984714       -26.7954 
  47   2.0000      -0.984127       -26.7794 
  48   2.0000      -0.981541       -26.7091 
  49   2.0000      -0.963480       -26.2176 
  50   2.0000      -0.952830       -25.9278 
  51   2.0000      -0.949221       -25.8296 
  52   2.0000      -0.936867       -25.4934 
  53   2.0000      -0.798696       -21.7336 
  54   2.0000      -0.796242       -21.6668 
  55   2.0000      -0.793832       -21.6013 
  56   2.0000      -0.758366       -20.6362 
  57   2.0000      -0.735783       -20.0217 
  58   2.0000      -0.719033       -19.5659 
  59   2.0000      -0.702190       -19.1076 
  60   2.0000      -0.700480       -19.0610 
  61   2.0000      -0.698790       -19.0150 
  62   2.0000      -0.694986       -18.9115 
  63   2.0000      -0.685441       -18.6518 
  64   2.0000      -0.666851       -18.1459 
  65   2.0000      -0.652011       -17.7421 
  66   2.0000      -0.648932       -17.6583 
  67   2.0000      -0.647346       -17.6152 
  68   2.0000      -0.640607       -17.4318 
  69   2.0000      -0.629084       -17.1182 
  70   2.0000      -0.615729       -16.7548 
  71   2.0000      -0.614480       -16.7208 
  72   2.0000      -0.577969       -15.7273 
  73   2.0000      -0.567436       -15.4407 
  74   2.0000      -0.559594       -15.2273 
  75   2.0000      -0.557374       -15.1669 
  76   2.0000      -0.546087       -14.8598 
  77   2.0000      -0.544833       -14.8256 
  78   2.0000      -0.540615       -14.7109 
  79   2.0000      -0.534470       -14.5437 
  80   2.0000      -0.511775       -13.9261 
  81   2.0000      -0.508181       -13.8283 
  82   2.0000      -0.505408       -13.7529 
  83   2.0000      -0.503603       -13.7037 
  84   2.0000      -0.480574       -13.0771 
  85   2.0000      -0.477956       -13.0058 
  86   2.0000      -0.474289       -12.9060 
  87   2.0000      -0.472787       -12.8652 
  88   2.0000      -0.461252       -12.5513 
  89   2.0000      -0.456033       -12.4093 
  90   2.0000      -0.453621       -12.3437 
  91   2.0000      -0.448688       -12.2094 
  92   2.0000      -0.442515       -12.0415 
  93   2.0000      -0.439264       -11.9530 
  94   2.0000      -0.438681       -11.9371 
  95   2.0000      -0.432565       -11.7707 
  96   2.0000      -0.430880       -11.7248 
  97   2.0000      -0.424579       -11.5534 
  98   2.0000      -0.423430       -11.5221 
  99   2.0000      -0.421313       -11.4645 
 100   2.0000      -0.420532       -11.4433 
 101   2.0000      -0.416504       -11.3336 
 102   2.0000      -0.411041       -11.1850 
 103   2.0000      -0.406919       -11.0728 
 104   2.0000      -0.402398       -10.9498 
 105   2.0000      -0.401419       -10.9232 
 106   2.0000      -0.399468       -10.8701 
 107   2.0000      -0.389322       -10.5940 
 108   2.0000      -0.387571       -10.5463 
 109   2.0000      -0.385036       -10.4774 
 110   2.0000      -0.381625       -10.3845 
 111   2.0000      -0.380660       -10.3583 
 112   2.0000      -0.379218       -10.3190 
 113   2.0000      -0.377485       -10.2719 
 114   2.0000      -0.373345       -10.1592 
 115   2.0000      -0.370897       -10.0926 
 116   2.0000      -0.368500       -10.0274 
 117   2.0000      -0.368406       -10.0248 
[...]
 
 sDSO          -138.130          -12.204           42.253  iso=     -36.027
 sPSO           161.825           38.326           -7.615  iso=      64.179
        ---------------  ---------------  ---------------
 Total           23.696           26.122           34.638  iso=      28.152

 Orientation: 
  X           0.6193089    0.6013095    0.5048598
  Y          -0.1358979   -0.5512127    0.8232231
  Z           0.7732970   -0.5784388   -0.2596543

 --------------
 Nucleus  73H :
 --------------

Diamagnetic contribution to the shielding tensor (ppm) : 
          -177.554         -6.259       -44.516
          -129.472         45.675       -19.434
           -62.041         13.711       -89.644

Paramagnetic contribution to the shielding tensor (ppm): 
           203.943          5.954        43.648
           126.541        -13.145        18.889
            62.038        -15.651       114.755

Total shielding tensor (ppm): 
            26.389         -0.305        -0.868
            -2.932         32.531        -0.545
            -0.003         -1.940        25.111


 Diagonalized sT*s matrix:
 
 sDSO          -151.178         -129.884           59.539  iso=     -73.841
 sPSO           175.771          156.241          -26.459  iso=     101.851
        ---------------  ---------------  ---------------
 Total           24.593           26.358           33.080  iso=      28.010

 Orientation: 
  X           0.4173867    0.8746558   -0.2465068
  Y           0.2219391    0.1649346    0.9610097
  Z           0.8812102   -0.4558222   -0.1252788

 --------------
 Nucleus  74H :
 --------------

Diamagnetic contribution to the shielding tensor (ppm) : 
          -119.528         15.037       -37.133
           -91.573         54.014       -21.261
           -25.733        -36.706       -49.374

Paramagnetic contribution to the shielding tensor (ppm): 
           148.161        -13.339        37.925
            92.240        -26.361        18.994
            27.137         36.910        79.467

Total shielding tensor (ppm): 
            28.633          1.698         0.792
             0.667         27.653        -2.268
             1.404          0.204        30.093


 Diagonalized sT*s matrix:
 
 sDSO            16.336          -61.566          -69.658  iso=     -38.296
 sPSO             9.956           90.918          100.394  iso=      67.089
        ---------------  ---------------  ---------------
 Total           26.292           29.351           30.736  iso=      28.793

 Orientation: 
  X          -0.5586144    0.7311713    0.3915845
  Y           0.7517436    0.6458089   -0.1334632
  Z           0.3504732   -0.2198167    0.9104115

 --------------
 Nucleus  75H :
 --------------

Diamagnetic contribution to the shielding tensor (ppm) : 
            26.982       -111.047       -24.199
           -11.583        -39.939       -25.807
           -16.355        -88.380       -18.217

Paramagnetic contribution to the shielding tensor (ppm): 
             4.494        119.334        36.247
            17.020         59.372        28.359
            25.951         90.873        45.640

Total shielding tensor (ppm): 
            31.476          8.287        12.048
             5.437         19.434         2.552
             9.595          2.493        27.423


 Diagonalized sT*s matrix:
 
 sDSO            17.975           13.605          -62.754  iso=     -10.391
 sPSO            -2.448            6.690          105.265  iso=      36.502
        ---------------  ---------------  ---------------
 Total           15.527           20.295           42.511  iso=      26.111

 Orientation: 
  X           0.5857001    0.3404993    0.7355377
  Y          -0.7364468    0.6025833    0.3074728
  Z          -0.3385284   -0.7217712    0.6036927

 --------------
 Nucleus  76H :
 --------------

Diamagnetic contribution to the shielding tensor (ppm) : 
            36.159        116.038         8.138
             2.560         87.624         5.708
            66.817       -125.389        91.022

Paramagnetic contribution to the shielding tensor (ppm): 
            -7.169       -118.861        -5.335
            -3.668        -65.237        -5.565
           -63.084        125.108       -49.741

Total shielding tensor (ppm): 
            28.989         -2.823         2.803
            -1.108         22.387         0.143
             3.732         -0.281        41.281


 Diagonalized sT*s matrix:
 
 sDSO           120.824          -14.722          108.703  iso=      71.602
 sPSO           -99.011           43.457          -66.593  iso=     -40.716
        ---------------  ---------------  ---------------
 Total           21.813           28.735           42.110  iso=      30.886

 Orientation: 
  X           0.2981581   -0.9207339    0.2516959
  Y           0.9534945    0.2994966   -0.0339117
  Z          -0.0441584    0.2501017    0.9672121

 --------------
 Nucleus  77H :
 --------------

Diamagnetic contribution to the shielding tensor (ppm) : 
           -15.123        -33.591         3.637
           -32.487         10.545        -7.949
            53.180       -125.751      -158.899

Paramagnetic contribution to the shielding tensor (ppm): 
            55.219         41.900       -12.411
            42.041         11.882         2.731
           -61.763        123.260       182.046

Total shielding tensor (ppm): 
            40.096          8.309        -8.774
             9.555         22.427        -5.218
            -8.584         -2.491        23.147


 Diagonalized sT*s matrix:
 
 sDSO            -6.939         -103.907          -52.631  iso=     -54.492
 sPSO            25.597          123.406          100.145  iso=      83.049
        ---------------  ---------------  ---------------
 Total           18.658           19.499           47.513  iso=      28.557

 Orientation: 
  X           0.2934306    0.4147052   -0.8613467
  Y          -0.9365571   -0.0559981   -0.3460131
  Z          -0.1917272    0.9082311    0.3719635

 --------------
 Nucleus  78H :
 --------------

Diamagnetic contribution to the shielding tensor (ppm) : 
           -86.208       -131.010       -13.762
           -74.508        -46.182        -7.050
           -68.583        -29.323        -9.188

Paramagnetic contribution to the shielding tensor (ppm): 
           103.679        127.184        10.004
            70.547         72.348         4.913
            65.524         25.683        41.847

Total shielding tensor (ppm): 
            17.471         -3.827        -3.758
            -3.961         26.166        -2.137
            -3.059         -3.640        32.659


 Diagonalized sT*s matrix:
 
 sDSO          -165.312           25.059           -1.326  iso=     -47.193
 sPSO           180.280            2.278           35.316  iso=      72.625
        ---------------  ---------------  ---------------
 Total           14.968           27.337           33.990  iso=      25.432

 Orientation: 
  X           0.8993946    0.4196270   -0.1224851
  Y           0.3699077   -0.8798905   -0.2982634
  Z           0.2329328   -0.2229483    0.9465920

 --------------
 Nucleus  79H :
 --------------

Diamagnetic contribution to the shielding tensor (ppm) : 
            92.946          6.868       -21.539
            32.801         47.016       -17.386
           -36.546         44.407        28.495

Paramagnetic contribution to the shielding tensor (ppm): 
           -64.240         -8.622        21.033
           -35.722        -19.396        15.961
            37.727        -47.129        -2.595

Total shielding tensor (ppm): 
            28.705         -1.753        -0.506
            -2.921         27.620        -1.425
             1.181         -2.722        25.900


 Diagonalized sT*s matrix:
 
 sDSO            48.305           87.094           33.058  iso=      56.152
 sPSO           -24.082          -60.156           -1.994  iso=     -28.744
        ---------------  ---------------  ---------------
 Total           24.223           26.938           31.064  iso=      27.409

 Orientation: 
  X           0.2811113    0.6544586   -0.7018977
  Y           0.6269509    0.4284980    0.6506321
  Z           0.7265735   -0.6229554   -0.2898578

 --------------
 Nucleus  80H :
 --------------

Diamagnetic contribution to the shielding tensor (ppm) : 
           129.323       -116.346       -18.105
            72.414        -39.735       -11.655
           -18.370         18.365         8.982

Paramagnetic contribution to the shielding tensor (ppm): 
          -102.214        119.618        15.148
           -69.237         71.004        11.407
            16.856        -20.280        16.869

Total shielding tensor (ppm): 
            27.109          3.272        -2.957
             3.178         31.269        -0.248
            -1.513         -1.914        25.850


 Diagonalized sT*s matrix:
 
 sDSO            54.416           53.780           -9.627  iso=      32.857
 sPSO           -30.484          -27.056           43.199  iso=      -4.780
        ---------------  ---------------  ---------------
 Total           23.932           26.724           33.572  iso=      28.076

 Orientation: 
  X           0.7028545    0.5085769    0.4973380
  Y          -0.2121634   -0.5174591    0.8289890
  Z           0.6789568   -0.6881755   -0.2557971

 --------------
 Nucleus  81H :
 --------------

Diamagnetic contribution to the shielding tensor (ppm) : 
            18.793        -61.748       -24.547
             0.571        -14.893       -12.738
           -69.388         61.919        13.974

Paramagnetic contribution to the shielding tensor (ppm): 
             5.711         61.619        21.975
            -0.368         41.506         8.881
            66.760        -63.744        17.693

Total shielding tensor (ppm): 
            24.504         -0.129        -2.572
             0.204         26.613        -3.857
            -2.627         -1.825        31.668


 Diagonalized sT*s matrix:
 
 sDSO           -27.424           33.697           11.602  iso=       5.958
 sPSO            50.794           -7.859           21.975  iso=      21.637
        ---------------  ---------------  ---------------
 Total           23.370           25.838           33.577  iso=      27.595

 Orientation: 
  X           0.8668537    0.4262497   -0.2586036
  Y           0.3272232   -0.8777666   -0.3499297
  Z           0.3761510   -0.2187167    0.9003741



--------------------------------
CHEMICAL SHIELDING SUMMARY (ppm)
--------------------------------


  Nucleus  Element    Isotropic     Anisotropy
  -------  -------  ------------   ------------
      0       C           22.134        120.072 
      1       C           46.417         90.677 
      2       C           21.707        119.583 
      3       C           76.914        138.708 
      4       C           36.484        198.099 
      5       C           73.123        126.688 
      6       C          142.043         37.470 
      7       C          130.547         23.801 
      8       C          135.036         18.440 
      9       C          148.815         34.647 
     10       C           42.925        187.337 
     11       C           70.131        144.893 
     12       C           31.393        120.005 
     13       C           32.622        123.587 
     14       C           66.925        143.659 
     15       C           57.943        148.172 
     16       C          111.904         65.807 
     17       C          115.472         70.167 
     23       C           91.527         67.747 
     24       C          101.840         49.461 
     25       C           44.762        166.049 
     26       C          112.969         58.907 
     28       C           72.380        151.628 
     29       C           30.851        118.045 
     30       C           31.466        122.749 
     31       C           67.492        144.988 
     32       C           63.754        174.985 
     33       C          123.794         77.727 
     34       C          124.469         79.887 
     35       C          124.601         73.757 
     41       C          124.107         76.712 
     42       H           25.107          9.045 
     43       H           24.899          7.404 
     44       H           29.220          5.081 
     45       H           28.007          7.738 
     46       H           29.435          2.493 
     47       H           31.540          7.795 
     48       H           29.299          4.271 
     49       H           30.069          6.755 
     50       H           25.363         10.093 
     51       H           24.744          5.129 
     52       H           24.725          6.075 
     53       H           27.593          6.247 
     54       H           28.283          5.263 
     55       H           28.590          6.465 
     56       H           27.928          7.546 
     57       H           26.006         11.401 
     58       H           27.066          6.207 
     59       H           27.792          4.989 
     60       H           27.711          9.714 
     61       H           27.964          3.501 
     62       H           27.214         19.491 
     63       H           25.345         10.191 
     64       H           24.734          4.122 
     65       H           24.700          9.443 
     66       H           27.479          8.205 
     67       H           27.363          7.717 
     68       H           27.881          9.149 
     69       H           27.985          6.371 
     70       H           27.586          9.749 
     71       H           27.763         10.091 
     72       H           28.152          9.729 
     73       H           28.010          7.604 
     74       H           28.793          2.914 
     75       H           26.111         24.600 
     76       H           30.886         16.835 
     77       H           28.557         28.435 
     78       H           25.432         12.838 
     79       H           27.409          5.484 
     80       H           28.076          8.244 
     81       H           27.595          8.973 


NMR shielding tensor and spin rotation calculation done in   3.8 sec 

Maximum memory used throughout the entire PROP-calculation: 370.2 MB
--------------------------------------------------------------------------
WARNING: There was an error initializing an OpenFabrics device.

  Local host:   c01b01n07
  Local device: mlx5_0
--------------------------------------------------------------------------
--------------------------------------------------------------------------
WARNING: There is at least one non-excluded one OpenFabrics device found,
but there are no active ports detected (or Open MPI was unable to use
them).  This is most certainly not what you wanted.  Check your
cables, subnet manager configuration, etc.  The openib BTL will be
ignored for this job.

  Local host: c01b01n07
--------------------------------------------------------------------------
[c01b01n07:535399] 50 more processes have sent help message help-mpi-btl-openib.txt / error in device init
[c01b01n07:535399] Set MCA parameter "orte_base_help_aggregate" to 0 to see all help / error messages
[c01b01n07:535399] 8 more processes have sent help message help-mpi-btl-openib.txt / no active ports found

--------------------------------
SUGGESTED CITATIONS FOR THIS RUN
--------------------------------

Below you find a list of papers that are relevant to this ORCA run
We neither can nor want to force you to cite these papers, but we appreciate if you do
You receive ORCA, which is the product of decades of hard work by many enthusiastic individuals, for free
The only thing we kindly ask in return is that you cite our papers,
We deeply appreciate it, if you show your appreciation for ORCA by not just citing the generic ORCA reference.

Please note that relegating all ORCA citations to the supporting information does *not* help us.
SI sections are not indexed - citations you put there will not count into any citation statistics
But we need these citations in order to attract the funding resources that allow us to do what we are doing

Therefore, if you are a happy ORCA user, please consider citing a few of the papers listed below in the main body of your paper

In addition to the list printed below, the program has created the file nmr-conf-13.bibtex that contains the list in bibtex format
You can import this file easily into all common literature databanks and citation aid programs


List of essential papers. We consider these as the minimum necessary citations

  1. Neese, F.
     Software update: the ORCA program system, version 6.0
     WIRES Comput. Molec. Sci. 2025 15(1), e70019
     doi.org/10.1002/wcms.7019

List of papers to cite with high priority. The work reported in these papers was absolutely
necessary for this run to complete.
Our perspective: the developers of density functionals and basis sets usually get cited in chemistry papers
Good! But without the algorithms to do something with them, the functionals or basis sets would not do anything.
Hence, in our opinion, the algorithm design and method developments papers are equally worthy of getting cited

  1. Neese, F.
     An improvement of the resolution of the identity approximation for the formation of the Coulomb matrix
     J. Comp. Chem. 2003 24(14), 1740-1747
     doi.org/10.1002/jcc.10318
  2. Stoychev, G.L.; Auer, A.A.; Neese, F.
     Automatic Generation of Auxiliary Basis Sets
     J. Theo. Comp. Chem. 2017 13 , 554-562
     doi.org/10.1021/acs.jctc.6b01041
  3. Stoychev, G.L.; Auer, A.A.; Izsak, R.; Neese, F.
     Self-Consistent Field Calculation of Nuclear Magnetic Resonance Chemical Shielding Constants Using Gauge-Including Atomic Orbitals and Approximate Two-Electron Integrals
     J. Chem. Theory Comput. 2018 14(2), 619-637
     doi.org/10.1021/acs.jctc.7b01006
  4. Garcia-Rates, M.; Neese, F.
     Effect of the Solute Cavity on the Solvation Energy and its Derivatives within the Framework of the Gaussian Charge Scheme
     J. Comput. Chem. 2020 41 , 922-939
     doi.org/10.1002/jcc.26139
  5. Neese, F.
     The SHARK Integral Generation and Digestion System
     J. Comp. Chem. 2022 44(3), 381
     doi.org/10.1002/jcc.26942

List of suggested additional citations. These are papers that are important in the 'surrounding' of 
of this run, or papers that preceded the highly important papers. If you like your results we are grateful for a citation.

  1. Neese, F.
     The ORCA program system
     WIRES Comput. Molec. Sci. 2012 2(1), 73-78
     doi.org/10.1002/wcms.81
  2. Neese, F.
     Software update: the ORCA program system, version 4.0
     WIRES Comput. Molec. Sci. 2018 8(1), 1-6
     doi.org/10.1002/wcms.1327
  3. Neese, F.; Wennmohs, F.; Becker, U.; Riplinger, C.
     The ORCA quantum chemistry program package
     J. Chem. Phys. 2020 152(22), 224108
     doi.org/10.1063/5.0004608
  4. Neese, F.
     Software update: The ORCA program system—Version 5.0
     WIRES Comput. Molec. Sci. 2022 12(1), e1606
     doi.org/10.1002/wcms.1606

List of optional additional citations

  1. Neese, F.
     Approximate second-order SCF convergence for spin unrestricted wavefunctions
     Chem. Phys. Lett. 2000 325(1-3), 93-98
     doi.org/10.1016/s0009-2614(00)00662-x

Timings for individual modules:

Sum of individual times          ...      249.233 sec (=   4.154 min)
Startup calculation              ...       83.287 sec (=   1.388 min)  33.4 %
SCF iterations                   ...       96.539 sec (=   1.609 min)  38.7 %
Property integrals               ...       50.604 sec (=   0.843 min)  20.3 %
SCF Response                     ...       10.333 sec (=   0.172 min)   4.1 %
Property calculations            ...        8.470 sec (=   0.141 min)   3.4 %
                             ****ORCA TERMINATED NORMALLY****
TOTAL RUN TIME: 0 days 0 hours 4 minutes 36 seconds 918 msec
