
                                 *****************
                                 * O   R   C   A *
                                 *****************

                                            #,                                       
                                            ###                                      
                                            ####                                     
                                            #####                                    
                                            ######                                   
                                           ########,                                 
                                     ,,################,,,,,                         
                               ,,#################################,,                 
                          ,,##########################################,,             
                       ,#########################################, ''#####,          
                    ,#############################################,,   '####,        
                  ,##################################################,,,,####,       
                ,###########''''           ''''###############################       
              ,#####''   ,,,,##########,,,,          '''####'''          '####       
            ,##' ,,,,###########################,,,                        '##       
           ' ,,###''''                  '''############,,,                           
         ,,##''                                '''############,,,,        ,,,,,,###''
      ,#''                                            '''#######################'''  
     '                                                          ''''####''''         
             ,#######,   #######,   ,#######,      ##                                
            ,#'     '#,  ##    ##  ,#'     '#,    #''#        ,####,    ,#,          
            ##       ##  ##   ,#'  ##            #'  '#       #'       ,# #          
            ##       ##  #######   ##           ,######,      #####,      #          
            '#,     ,#'  ##    ##  '#,     ,#' ,#      #,     #,   #      #          
             '#######'   ##     ##  '#######'  #'      '#     '####' #    #          



                #########################################################
                #                        -***-                          #
                #          Department of theory and spectroscopy        #
                #                                                       #
                #                      Frank Neese                      #
                #                                                       #
                #     Directorship, Architecture, Infrastructure        #
                #                    SHARK, DRIVERS                     #
                #        Core code/Algorithms in most modules           #
                #                                                       #
                #        Max Planck Institute fuer Kohlenforschung      #
                #                Kaiser Wilhelm Platz 1                 #
                #                 D-45470 Muelheim/Ruhr                 #
                #                      Germany                          #
                #                                                       #
                #                  All rights reserved                  #
                #                        -***-                          #
                #########################################################


                         Program Version 6.1.0-f.0  -   RELEASE   -


 With contributions from (in alphabetic order):
[Max-Planck-Institut fuer Kohlenforschung]                               
  Daniel Aravena         : Magnetic Suceptibility                        
  Michael Atanasov       : Ab Initio Ligand Field Theory (pilot matlab implementation)
  Alexander A. Auer      : GIAO ZORA, VPT2 properties, NMR spectrum      
  Ute Becker             : All parallelization in ORCA, NUMFREQ, NUMCALC 
  Giovanni Bistoni       : ED, misc. LED, open-shell LED, HFLD           
  Dmytro Bykov           : pre 5.0 version of the SCF Hessian            
  Marcos Casanova-Páez   : Triplet and SCS-CIS(D). UHF-(DLPNO)-IP/EA/STEOM-CCSD. UHF-CVS-IP/STEOM-CCSD   
  Vijay G. Chilkuri      : MRCI spin determinant printing, contributions to CSF-ICE 
  Pauline Colinet        : FMM embedding                                 
  Dipayan Datta          : RHF DLPNO-CCSD density                        
  Achintya Kumar Dutta   : EOM-CC, STEOM-CC                              
  Nicolas Foglia         : Exact transition moments, OPA infrastructure, MCD improvements    
  Dmitry Ganyushin       : Spin-Orbit,Spin-Spin,Magnetic field MRCI      
  Miquel Garcia-Rates    : C-PCM and meta-GGA Hessian, CCSD/C-PCM, Gaussian charge scheme 
  Tiago L. C. Gouveia    : GS-ROHF, GS-ROCIS                             
  Yang Guo               : DLPNO-NEVPT2, F12-NEVPT2, CIM, IAO-localization        
  Andreas Hansen         : Spin unrestricted coupled pair/coupled cluster methods 
  Ingolf Harden          : AUTO-CI MPn and infrastructure                
  Benjamin Helmich-Paris : MC-RPA, TRAH-(SCF,CASSCF), AVAS, COSX integrals, SCF dyn. polar., MC-PDFT, srDFT 
  Lee Huntington         : MR-EOM, pCC                                   
  Robert Izsak           : Overlap fitted RIJCOSX, COSX-SCS-MP3, EOM     
  Riya Kayal             : Wick's Theorem for AUTO-CI, AUTO-CI UHF-CCSDT 
  Emily Kempfer          : AUTO-CI RHF CISDT and CCSDT, approximate NEVPT4
  Christian Kollmar      : KDIIS, OOCD, Brueckner-CCSD(T), CCSD density, CASPT2, CASPT2-K, improved NEVPT2 
  Axel Koslowski         : Symmetry handling                             
  Simone Kossmann        : meta-GGA functionals, TD-DFT gradient, OOMP2, (MP2 Hessian; deprecated post 5.0) 
  Lucas Lang             : DCDCAS, Hyperfine gauge corrections, ICE-SOC+SSC
  Marvin Lechner         : AUTO-CI (C++ implementation), FIC-MRCC        
  Spencer Leger          : CASSCF response                               
  Dagmar Lenk            : GEPOL surface, SMD, ORCA-2-JSON               
  Dimitrios Liakos       : Extrapolation schemes; Compound Job, Property file
  Dimitrios Manganas     : Further ROCIS development; embedding schemes. LFT, Crystal Embedding 
  Dimitrios Pantazis     : SARC Basis sets                               
  Anastasios Papadopoulos: AUTO-CI, single reference methods and gradients 
  Taras Petrenko         : pre 6.0 DFT Hessian and TD-DFT gradient,  ECA, NRVS 
  Petra Pikulova         : Analytic Raman intensities                    
  Peter Pinski           : DLPNO-MP2, DLPNO-MP2 Gradient                 
  Shashank Vittal Rao    : ES-AILFT, MagRelax                            
  Christoph Reimann      : Effective Core Potentials                     
  Marius Retegan         : Local ZFS, SOC                                
  Christoph Riplinger    : Optimizer, TS searches, QM/MM, DLPNO-CCSD(T), (RO)-DLPNO pert. Triples 
  Michael Roemelt        : Original ROCIS implementation, recursive CI coupling coefficients
  Masaaki Saitow         : Open-shell DLPNO-CCSD energy and density      
  Barbara Sandhoefer     : DKH picture change effects                    
  Yorick L. A. Schmerwitz: GMF and freeze-and-release deltaSCF, NEB S-IDPP initial path                    
  Kantharuban Sivalingam : CASSCF convergence/infrastructure, NEVPT2, NEVPT3, NEVPT4(SD), FIC-MRCI and CEPA variants
  Bernardo de Souza      : ESD, SOC TD-DFT                               
  Georgi L. Stoychev     : AutoAux, RI-MP2 NMR, DLPNO-MP2 response, X2C  
  Van Anh Tran           : RI-MP2 g-tensors                              
  Willem Van den Heuvel  : Paramagnetic NMR                              
  Zikuan Wang            : NOTCH, Electric field optimization            
  Frank Wennmohs         : Technical directorship and infrastructure     
  Hang Xu                : AUTO-CI-Response properties                   
                                                                         
[FACCTs GmbH]                                                            
  Markus Bursch, Nicolas Foglia, Miquel Garcia-Rates, Ingolf Harden, Hagen Neugebauer, Anastasios Papadopoulos, 
  Christoph Riplinger, Bernardo de Souza, Georgi L. Stoychev                                                    
                                                                 
  APM, various basis sets, CI-OPT, improved COSX, DLPNO-Multilevel,           
  DOCKER, DRACO, updates on ESD, Fragmentator, GOAT, IRC, LR-CPCM, L-BFGS, MBIS, meta-GGA TD-DFT gradient, ML-optimized integration grids, 
  MM, NACMEs, nearIR, NEB, NEB-TS, NL-DFT gradient (VV10), 2- and 3-layer-ONIOM, interface openCOSMO-RS, QMMM,   
  Crystal-QMMM, RESP, rigid body optimization, SF, symmetry and pop. for TD-DFT, various functionals, SOLVATOR                                   
                                                                         
[Other institutions]                                                     
  V. Asgeirsson          : NEB                                           
  Christoph Bannwarth    : sTDA-DFT, sTD-DFT, PBEh-3c, B97-3c, D3        
  Giovanni Bistoni       : ETS/NOCV, ADLD/ADEX, COVALED                  
  Martin Brehm           : Molecular dynamics                            
  Ronald Cardenas        : ETS/NOCV                                      
  Martina Colucci        : COVALED                                       
  Sebastian Ehlert       : rSCAN, r2SCAN, r2SCAN-3c, D4, dhf basis sets  
  Marvin Friede          : D4 for Fr, Ra, Ac-Lr                          
  Lars Goerigk           : TD-DFT with DH, B97 family of functionals     
  Stefan Grimme          : VdW corrections, initial TS optimization, DFT functionals, gCP, sTDA/sTD-DF 
  Waldemar Hujo          : DFT-NL                                        
  H. Jonsson             : NEB                                           
  Holger Kruse           : gCP                                           
  Marcel Mueller         : wB97X-3c, vDZP basis set                      
  Hagen Neugebauer       : wr2SCAN, Native XTB                           
  Gianluca Regni         : ADLD/ADEX                                     
  Tobias Risthaus        : pre 6.0 range-separated hybrid DFT and stability analysis
  Lukas Wittmann         : regularized MP2, r2SCAN double-hybrids, wr2SCAN        
                                                                         
We gratefully acknowledge several colleagues who have allowed us to      
interface, adapt or use parts of their codes:                            
  Ed Valeev, F. Pavosevic, A. Kumar             : LibInt (2-el integral package), F12 methods 
  Garnet Chan, S. Sharma, J. Yang, R. Olivares  : DMRG                   
  Ulf Ekstrom                                   : XCFun DFT Library      
  Mihaly Kallay                                 : mrcc  (arbitrary order and MRCC methods)
  Frank Weinhold                                : gennbo (NPA and NBO analysis)           
  Simon Mueller                                 : openCOSMO-RS                            
  Christopher J. Cramer and Donald G. Truhlar   : smd solvation model                     
  S Lehtola, MJT Oliveira, MAL Marques          : LibXC Library                           
  Liviu Ungur et al                             : ANISO software                          


 Your calculation uses the libint2 library for the computation of 2-el integrals
 For citations please refer to: http://libint.valeyev.net

 Your ORCA version has been built with support for libXC version: 7.0.0
 For citations please refer to: https://libxc.gitlab.io

 This ORCA versions uses:
   CBLAS   interface :  Fast vector & matrix operations
   LAPACKE interface :  Fast linear algebra routines
   SCALAPACK package :  Parallel linear algebra routines
   Shared memory     :  Shared parallel matrices
   BLAS/LAPACK       :  OpenBLAS 0.3.29  USE64BITINT DYNAMIC_ARCH NO_AFFINITY Cooperlake SINGLE_THREADED
        Core in use  :  Cooperlake
   Copyright (c) 2011-2014, The OpenBLAS Project


  ***********************************
  * Starting time: Wed Mar  4 13:44:39 2026
  * Host name:     c03b01n07
  * Process ID:    3000105
  * Working dir.:  /lustre1/jiangy/jiangy_liuxy/NMR/B9D7C2-SRSR-NMR/opt_conf
  ***********************************

NOTE: MaxCore=5000 MB was set to SCF,MP2,MDCI,CIPSI,MRCI,RASCI and CIS
      => If you want to overwrite this, your respective input block should be placed after the MaxCore statement


***************************************
The coordinates will be read from file: opt-conf-15.xyz
***************************************



Warning: The global flag for NMR shieldings has been found
         but shieldings for certain elements have also been explicitly requested in the EPRNMR block
         ==>> only the requested shieldings will be calculated

================================================================================

----- Orbital basis set information -----
Your calculation utilizes the basis: pcSseg-2
   F. Jensen, J. Chem. Theory Comput. 11, 132 (2015).

----- AuxJ basis set information -----
Your calculation utilizes the AutoAux generation procedure.
  G. L. Stoychev, A. A. Auer, F. Neese, J. Chem. Theory Comput. 13, 554 (2017)

----- AuxC basis set information -----
Your calculation utilizes the AutoAux generation procedure.
  G. L. Stoychev, A. A. Auer, F. Neese, J. Chem. Theory Comput. 13, 554 (2017)

----- AuxJK basis set information -----
Your calculation utilizes the AutoAux generation procedure.
  G. L. Stoychev, A. A. Auer, F. Neese, J. Chem. Theory Comput. 13, 554 (2017)

----- AuxX basis set information -----
Your calculation utilizes the AutoAux generation procedure.
  G. L. Stoychev, A. A. Auer, F. Neese, J. Chem. Theory Comput. 13, 554 (2017)

================================================================================
                                        WARNINGS
                       Please study these warnings very carefully!
================================================================================


================================================================================
                                       INPUT FILE
================================================================================
NAME = nmr-conf-15.inp
|  1> !TPSS PCSSEG-2 AUTOAUX NMR CPCM(Methanol)
|  2> 
|  3> %pal nprocs 60 end
|  4> %maxcore 5000
|  5> 
|  6> *XYZFILE 0 1 opt-conf-15.xyz
|  7> 
|  8> %EPRNMR
|  9>    NUCLEI = ALL C {SHIFT}
| 10>    NUCLEI = ALL H {SHIFT}
| 11>    TAU DOBSON
| 12> END
| 13> 
| 14> 
| 15>                          ****END OF INPUT****
================================================================================

                       ****************************
                       * Single Point Calculation *
                       ****************************

---------------------------------
CARTESIAN COORDINATES (ANGSTROEM)
---------------------------------
  C     21.055773  -29.984632    1.941515
  C     21.589564  -29.675006    0.687692
  C     20.840743  -29.952537   -0.461293
  C     19.594630  -30.563975   -0.353895
  C     19.064186  -30.866194    0.898042
  C     19.792239  -30.565369    2.044372
  C     17.717454  -31.537678    0.985377
  C     17.774582  -33.054543    0.694795
  C     16.423572  -33.644303    0.242497
  C     16.089430  -33.279272   -1.215348
  C     17.124746  -33.716599   -2.222028
  C     17.507952  -35.061636   -2.302492
  C     18.454777  -35.472928   -3.226446
  C     19.027429  -34.543798   -4.110040
  C     18.661341  -33.214376   -4.030104
  C     17.718281  -32.805303   -3.086352
  C     18.358326  -33.806452    1.892147
  C     15.272605  -33.268863    1.177142
  O     21.411316  -29.594007   -1.642830
  O     21.851135  -29.698928    3.007340
  O     22.799954  -29.029163    0.629449
  O     19.942315  -34.952164   -5.038381
  O     18.915495  -36.749685   -3.377173
  C     23.924376  -29.658988   -0.021566
  C     24.330264  -30.956206    0.709745
  C     23.398845  -32.110640    0.447396
  C     25.015812  -28.603783   -0.010085
  O     25.557650  -28.371963    1.290161
  C     23.127254  -32.514810   -0.863659
  C     22.260528  -33.567050   -1.105862
  C     21.659338  -34.235155   -0.028813
  C     21.947176  -33.858303    1.268513
  C     22.816083  -32.795885    1.503200
  C     21.388463  -30.058449    4.306088
  C     20.693399  -29.863649   -2.844560
  C     18.435277  -37.751581   -2.481750
  O     25.647109  -31.361461    0.295903
  O     18.602564  -35.188101    1.625837
  O     14.109090  -34.084876    0.984297
  O     21.904712  -34.038164   -2.332900
  O     20.785106  -35.263458   -0.264541
  C     22.536713  -33.473382   -3.481867
  H     19.024974  -30.800354   -1.240268
  H     19.377089  -30.801845    3.012722
  H     17.045889  -31.064860    0.266323
  H     17.286783  -31.368690    1.975783
  H     18.474225  -33.197358   -0.134013
  H     16.523239  -34.731416    0.300480
  H     15.945519  -32.199106   -1.302747
  H     15.129849  -33.738334   -1.475299
  H     17.061119  -35.783900   -1.634290
  H     19.117559  -32.501658   -4.705662
  H     17.444881  -31.758697   -3.031298
  H     17.668887  -33.778918    2.738786
  H     19.282770  -33.314773    2.208158
  H     15.564663  -33.425329    2.216021
  H     15.007490  -32.212985    1.061902
  H     20.086174  -35.903962   -4.926515
  H     23.674071  -29.874210   -1.061157
  H     24.332726  -30.746188    1.781036
  H     24.606745  -27.680818   -0.432849
  H     25.844619  -28.926047   -0.638166
  H     24.839063  -28.076701    1.864532
  H     23.583644  -31.996171   -1.693572
  H     21.484402  -34.391439    2.088650
  H     23.021591  -32.489842    2.520794
  H     21.211758  -31.134474    4.377428
  H     22.181503  -29.772547    4.993017
  H     20.471769  -29.521885    4.563326
  H     20.500338  -30.931838   -2.958336
  H     19.745327  -29.320589   -2.866376
  H     21.330999  -29.519360   -3.655132
  H     17.356364  -37.885125   -2.588737
  H     18.947680  -38.669769   -2.757250
  H     18.671210  -37.492005   -1.447110
  H     26.282180  -30.758583    0.705042
  H     19.277457  -35.249639    0.929693
  H     13.660996  -33.799910    0.179499
  H     20.684868  -35.375364   -1.222736
  H     23.618038  -33.622595   -3.436698
  H     22.118206  -33.996933   -4.335475
  H     22.318600  -32.406986   -3.561571

----------------------------
CARTESIAN COORDINATES (A.U.)
----------------------------
  NO LB      ZA    FRAG     MASS         X           Y           Z
   0 C     6.0000    0    12.011   39.789645  -56.662743    3.668931
   1 C     6.0000    0    12.011   40.798363  -56.077634    1.299549
   2 C     6.0000    0    12.011   39.383297  -56.602092   -0.871717
   3 C     6.0000    0    12.011   37.028484  -57.757542   -0.668765
   4 C     6.0000    0    12.011   36.026091  -58.328654    1.697054
   5 C     6.0000    0    12.011   37.401912  -57.760176    3.863304
   6 C     6.0000    0    12.011   33.481135  -59.597575    1.862092
   7 C     6.0000    0    12.011   33.589093  -62.464034    1.312973
   8 C     6.0000    0    12.011   31.036052  -63.578518    0.458253
   9 C     6.0000    0    12.011   30.404617  -62.888711   -2.296675
  10 C     6.0000    0    12.011   32.361080  -63.715138   -4.199025
  11 C     6.0000    0    12.011   33.085235  -66.256889   -4.351080
  12 C     6.0000    0    12.011   34.874474  -67.034119   -6.097099
  13 C     6.0000    0    12.011   35.956630  -65.278317   -7.766850
  14 C     6.0000    0    12.011   35.264824  -62.766074   -7.615794
  15 C     6.0000    0    12.011   33.482699  -61.993038   -5.832359
  16 C     6.0000    0    12.011   34.692208  -63.884936    3.575640
  17 C     6.0000    0    12.011   28.861040  -62.869040    2.224475
  18 O     8.0000    0    15.999   40.461523  -55.924568   -3.104499
  19 O     8.0000    0    15.999   41.292661  -56.122841    5.683049
  20 O     8.0000    0    15.999   43.085668  -54.857167    1.189486
  21 O     8.0000    0    15.999   37.685514  -66.050018   -9.521160
  22 O     8.0000    0    15.999   35.745105  -69.446840   -6.381932
  23 C     6.0000    0    12.011   45.210518  -56.047364   -0.040754
  24 C     6.0000    0    12.011   45.977535  -58.498752    1.341224
  25 C     6.0000    0    12.011   44.217408  -60.680315    0.845455
  26 C     6.0000    0    12.011   47.273033  -54.053316   -0.019058
  27 O     8.0000    0    15.999   48.296959  -53.615240    2.438051
  28 C     6.0000    0    12.011   43.704177  -61.444086   -1.632079
  29 C     6.0000    0    12.011   42.066301  -63.432533   -2.089776
  30 C     6.0000    0    12.011   40.930217  -64.695067   -0.054449
  31 C     6.0000    0    12.011   41.474153  -63.982920    2.397143
  32 C     6.0000    0    12.011   43.116148  -61.975240    2.840637
  33 C     6.0000    0    12.011   40.418337  -56.802236    8.137328
  34 C     6.0000    0    12.011   39.104856  -56.434118   -5.375440
  35 C     6.0000    0    12.011   34.837626  -71.340150   -4.689828
  36 O     8.0000    0    15.999   48.466012  -59.264572    0.559176
  37 O     8.0000    0    15.999   35.153752  -66.495874    3.072387
  38 O     8.0000    0    15.999   26.662316  -64.411081    1.860051
  39 O     8.0000    0    15.999   41.393907  -64.322807   -4.408542
  40 O     8.0000    0    15.999   39.278159  -66.638279   -0.499910
  41 C     6.0000    0    12.011   42.588216  -63.255525   -6.579775
  42 H     1.0000    0     1.008   35.951991  -58.204233   -2.343767
  43 H     1.0000    0     1.008   36.617391  -58.207051    5.693220
  44 H     1.0000    0     1.008   32.212062  -58.704079    0.503278
  45 H     1.0000    0     1.008   32.667286  -59.278233    3.733689
  46 H     1.0000    0     1.008   34.911225  -62.733915   -0.253248
  47 H     1.0000    0     1.008   31.224397  -65.632864    0.567825
  48 H     1.0000    0     1.008   30.132665  -60.847492   -2.461836
  49 H     1.0000    0     1.008   28.591271  -63.756212   -2.787911
  50 H     1.0000    0     1.008   32.240842  -67.621770   -3.088360
  51 H     1.0000    0     1.008   36.126952  -61.419232   -8.892412
  52 H     1.0000    0     1.008   32.966048  -60.015241   -5.728324
  53 H     1.0000    0     1.008   33.389358  -63.832904    5.175556
  54 H     1.0000    0     1.008   36.439155  -62.955797    4.172814
  55 H     1.0000    0     1.008   29.412951  -63.164718    4.187672
  56 H     1.0000    0     1.008   28.360046  -60.873719    2.006704
  57 H     1.0000    0     1.008   37.957368  -67.848655   -9.309764
  58 H     1.0000    0     1.008   44.737510  -56.454075   -2.005297
  59 H     1.0000    0     1.008   45.982188  -58.101875    3.365670
  60 H     1.0000    0     1.008   46.500010  -52.309165   -0.817966
  61 H     1.0000    0     1.008   48.839251  -54.662307   -1.205958
  62 H     1.0000    0     1.008   46.939027  -53.057276    3.523455
  63 H     1.0000    0     1.008   44.566629  -60.464000   -3.200387
  64 H     1.0000    0     1.008   40.599635  -64.990402    3.946977
  65 H     1.0000    0     1.008   43.504502  -61.396903    4.763610
  66 H     1.0000    0     1.008   40.084414  -58.835629    8.272141
  67 H     1.0000    0     1.008   41.916967  -56.261960    9.435435
  68 H     1.0000    0     1.008   38.686037  -55.788277    8.623436
  69 H     1.0000    0     1.008   38.740024  -58.452703   -5.590445
  70 H     1.0000    0     1.008   37.313260  -55.407883   -5.416666
  71 H     1.0000    0     1.008   40.309746  -55.783505   -6.907198
  72 H     1.0000    0     1.008   32.798775  -71.592511   -4.892004
  73 H     1.0000    0     1.008   35.805927  -73.075273   -5.210447
  74 H     1.0000    0     1.008   35.283473  -70.849621   -2.734642
  75 H     1.0000    0     1.008   49.666122  -58.125297    1.332337
  76 H     1.0000    0     1.008   36.429115  -66.612165    1.756866
  77 H     1.0000    0     1.008   25.815542  -63.872573    0.339205
  78 H     1.0000    0     1.008   39.088735  -66.849749   -2.310637
  79 H     1.0000    0     1.008   44.631623  -63.537496   -6.494419
  80 H     1.0000    0     1.008   41.797352  -64.244894   -8.192861
  81 H     1.0000    0     1.008   42.176042  -61.240328   -6.730395

--------------------------------
INTERNAL COORDINATES (ANGSTROEM)
--------------------------------
 C      0   0   0     0.000000000000     0.00000000     0.00000000
 C      1   0   0     1.397452047113     0.00000000     0.00000000
 C      2   1   0     1.399257318501   119.23425837     0.00000000
 C      3   2   1     1.392188427824   120.18339598   358.23750968
 C      4   3   2     1.392858327803   120.36491765     2.03028232
 C      5   4   3     1.390909685258   119.63718976   359.38819189
 C      5   4   3     1.507384025178   119.27323831   180.45699146
 C      7   5   4     1.545503174463   113.15939219    78.31548962
 C      8   7   5     1.541953284045   113.46270488   202.43114101
 C      9   8   7     1.539548221084   112.16269206    75.48737895
 C     10   9   8     1.508820203873   114.46512887    57.66560314
 C     11  10   9     1.400873392695   120.28614263    55.82634752
 C     12  11  10     1.385398083283   120.68394341   179.80255972
 C     13  12  11     1.404261960876   120.12679829   359.00767592
 C     14  13  12     1.381221184125   119.49427521     1.43426086
 C     11  10   9     1.389171934933   121.20862149   235.81715304
 C      8   7   5     1.529632463418   110.44971957    75.61392770
 C      9   8   7     1.529457621396   112.71866184   309.42900947
 O      3   2   1     1.360193849997   115.88194680   178.46120570
 O      1   2   3     1.360224327103   115.66714693   179.25971776
 O      2   1   3     1.373153157965   118.61775402   175.93467918
 O     14  13  12     1.365868554202   120.19832266   181.24093603
 O     13  12  11     1.365682379861   125.57092171   178.93908547
 C     21   2   1     1.443892167650   120.02655209   118.75951000
 C     24  21   2     1.543482239691   110.96281548   296.64816763
 C     25  24  21     1.506348259857   113.51454943    75.70389891
 C     24  21   2     1.518164093657   104.67060285   174.39235002
 O     27  24  21     1.427574830762   113.11775837    71.29305415
 C     26  25  24     1.398562873401   120.31910401    55.02238693
 C     29  26  25     1.384589439579   120.34233723   180.66415219
 C     30  29  26     1.402792464256   119.73001794   359.59984230
 C     31  30  29     1.381276204849   120.12437142   358.98854501
 C     26  25  24     1.387045738307   120.38669209   234.12304251
 C     20   1   2     1.424804707307   118.12294238   183.27192352
 C     19   3   2     1.425576521305   118.10904737   179.56039229
 C     23  13  12     1.426950273719   118.26944404   357.25750765
 O     25  24  21     1.438602420802   109.94802155   196.10031329
 O     17   8   7     1.428120020931   113.25749010   187.76056803
 O     18   9   8     1.434166398279   112.87220222   195.80047387
 O     30  29  26     1.361680670514   125.74196910   179.04264862
 O     31  30  29     1.370130210755   119.92081100   178.99288905
 C     40  30  29     1.427770379673   118.20523501     4.55568838
 H      4   3   2     1.079833143318   120.33180550   181.44440154
 H      6   5   4     1.079801998777   119.37227675   180.02201286
 H      7   5   4     1.091601304213   108.57408982   317.28378577
 H      7   5   4     1.093132473840   109.61011995   201.07354494
 H      8   7   5     1.093992169090   107.11002698   319.96772498
 H      9   8   7     1.093211109359   106.55311852   193.23200010
 H     10   9   8     1.093210344616   109.78849951   294.89513051
 H     10   9   8     1.095038276398   108.39609419   179.22897284
 H     12  11  10     1.080657302517   119.54408031   359.64072780
 H     15  14  13     1.082811079915   119.06152937   179.15285827
 H     16  11  10     1.083125807511   119.63075377     0.79034367
 H     17   8   7     1.092190980679   110.70122257    68.77401779
 H     17   8   7     1.093713680403   109.13217868   310.83310671
 H     18   9   8     1.090435438317   110.20769463   313.20773854
 H     18   9   8     1.094734859441   110.77346727    72.25792820
 H     22  14  13     0.969086093765   108.33796731   358.72934155
 H     24  21   2     1.090744341828   109.69985698    58.71070593
 H     25  24  21     1.091685639266   107.68969899   315.38730100
 H     27  24  21     1.094499480687   108.33102754   307.92246541
 H     27  24  21     1.088696457958   109.70612227   190.08148136
 H     28  27  24     0.966151196545   107.98692729   300.12579187
 H     29  26  25     1.079830647801   119.97311344   359.79016090
 H     32  31  30     1.082136396247   119.22851516   180.73284815
 H     33  26  25     1.082308633907   119.74900009     0.85273277
 H     34  20   1     1.092769064116   111.12971484    59.28818957
 H     34  20   1     1.087439157843   105.82208052   178.19883987
 H     34  20   1     1.092885883240   111.28708724   297.07495374
 H     35  19   3     1.091441955310   111.22741381   300.08917135
 H     35  19   3     1.092808564406   111.08381095    62.10206261
 H     35  19   3     1.087241802280   105.85722186   181.07840151
 H     36  23  13     1.092398332267   110.90114424    62.72408577
 H     36  23  13     1.086979705095   105.98630795   181.74996507
 H     36  23  13     1.092485245178   110.77989008   300.81572684
 H     37  25  24     0.966525624891   107.69615424    73.48367245
 H     38  17   8     0.971536863873   108.28234455    63.55349442
 H     39  18   9     0.964205515188   108.72953636   284.10167457
 H     41  31  30     0.969901507509   108.81464397   358.56582500
 H     42  40  30     1.092505246737   110.53760717    59.85403387
 H     42  40  30     1.085311815056   105.74850754   179.33198805
 H     42  40  30     1.091387806517   110.90487809   298.17164862

---------------------------
INTERNAL COORDINATES (A.U.)
---------------------------
 C      0   0   0     0.000000000000     0.00000000     0.00000000
 C      1   0   0     2.640801654331     0.00000000     0.00000000
 C      2   1   0     2.644213122852   119.23425837     0.00000000
 C      3   2   1     2.630854855402   120.18339598   358.23750968
 C      4   3   2     2.632120782900   120.36491765     2.03028232
 C      5   4   3     2.628438382157   119.63718976   359.38819189
 C      5   4   3     2.848542986235   119.27323831   180.45699146
 C      7   5   4     2.920577738841   113.15939219    78.31548962
 C      8   7   5     2.913869418146   113.46270488   202.43114101
 C      9   8   7     2.909324507814   112.16269206    75.48737895
 C     10   9   8     2.851256970648   114.46512887    57.66560314
 C     11  10   9     2.647267060490   120.28614263    55.82634752
 C     12  11  10     2.618022963864   120.68394341   179.80255972
 C     13  12  11     2.653670526339   120.12679829   359.00767592
 C     14  13  12     2.610129768367   119.49427521     1.43426086
 C     11  10   9     2.625154509953   121.20862149   235.81715304
 C      8   7   5     2.890586441415   110.44971957    75.61392770
 C      9   8   7     2.890256037876   112.71866184   309.42900947
 O      3   2   1     2.570393865538   115.88194680   178.46120570
 O      1   2   3     2.570451458923   115.66714693   179.25971776
 O      2   1   3     2.594883408483   118.61775402   175.93467918
 O     14  13  12     2.581117502376   120.19832266   181.24093603
 O     13  12  11     2.580765683858   125.57092171   178.93908547
 C     21   2   1     2.728560763773   120.02655209   118.75951000
 C     24  21   2     2.916758725588   110.96281548   296.64816763
 C     25  24  21     2.846585673439   113.51454943    75.70389891
 C     24  21   2     2.868914363365   104.67060285   174.39235002
 O     27  24  21     2.697725465820   113.11775837    71.29305415
 C     26  25  24     2.642900811797   120.31910401    55.02238693
 C     29  26  25     2.616494848724   120.34233723   180.66415219
 C     30  29  26     2.650893580173   119.73001794   359.59984230
 C     31  30  29     2.610233742467   120.12437142   358.98854501
 C     26  25  24     2.621136580623   120.38669209   234.12304251
 C     20   1   2     2.692490691131   118.12294238   183.27192352
 C     19   3   2     2.693949208214   118.10904737   179.56039229
 C     23  13  12     2.696545224053   118.26944404   357.25750765
 O     25  24  21     2.718564590912   109.94802155   196.10031329
 O     17   8   7     2.698755725929   113.25749010   187.76056803
 O     18   9   8     2.710181723220   112.87220222   195.80047387
 O     30  29  26     2.573203549126   125.74196910   179.04264862
 O     31  30  29     2.589170866138   119.92081100   178.99288905
 C     40  30  29     2.698094999706   118.20523501     4.55568838
 H      4   3   2     2.040588911202   120.33180550   181.44440154
 H      6   5   4     2.040530056550   119.37227675   180.02201286
 H      7   5   4     2.062827512393   108.57408982   317.28378577
 H      7   5   4     2.065721003653   109.61011995   201.07354494
 H      8   7   5     2.067345592235   107.11002698   319.96772498
 H      9   8   7     2.065869603249   106.55311852   193.23200010
 H     10   9   8     2.065868158093   109.78849951   294.89513051
 H     10   9   8     2.069322448553   108.39609419   179.22897284
 H     12  11  10     2.042146346379   119.54408031   359.64072780
 H     15  14  13     2.046216395814   119.06152937   179.15285827
 H     16  11  10     2.046811144778   119.63075377     0.79034367
 H     17   8   7     2.063941839422   110.70122257    68.77401779
 H     17   8   7     2.066819324884   109.13217868   310.83310671
 H     18   9   8     2.060624345141   110.20769463   313.20773854
 H     18   9   8     2.068749073601   110.77346727    72.25792820
 H     22  14  13     1.831307317407   108.33796731   358.72934155
 H     24  21   2     2.061208088178   109.69985698    58.71070593
 H     25  24  21     2.062986882547   107.68969899   315.38730100
 H     27  24  21     2.068304272217   108.33102754   307.92246541
 H     27  24  21     2.057338148512   109.70612227   190.08148136
 H     28  27  24     1.825761165431   107.98692729   300.12579187
 H     29  26  25     2.040584195359   119.97311344   359.79016090
 H     32  31  30     2.044941428456   119.22851516   180.73284815
 H     33  26  25     2.045266910463   119.74900009     0.85273277
 H     34  20   1     2.065034258800   111.12971484    59.28818957
 H     34  20   1     2.054962195626   105.82208052   178.19883987
 H     34  20   1     2.065255014952   111.28708724   297.07495374
 H     35  19   3     2.062526386607   111.22741381   300.08917135
 H     35  19   3     2.065108903531   111.08381095    62.10206261
 H     35  19   3     2.054589247660   105.85722186   181.07840151
 H     36  23  13     2.064333677137   110.90114424    62.72408577
 H     36  23  13     2.054093955759   105.98630795   181.74996507
 H     36  23  13     2.064497918735   110.77989008   300.81572684
 H     37  25  24     1.826468732460   107.69615424    73.48367245
 H     38  17   8     1.835938601728   108.28234455    63.55349442
 H     39  18   9     1.822084360522   108.72953636   284.10167457
 H     41  31  30     1.832848226070   108.81464397   358.56582500
 H     42  40  30     2.064535716205   110.53760717    59.85403387
 H     42  40  30     2.050942100364   105.74850754   179.33198805
 H     42  40  30     2.062424060218   110.90487809   298.17164862

---------------------
BASIS SET INFORMATION
---------------------
There are 3 groups of distinct atoms

 Group   1 Type C   : 11s7p2d1f contracted to 4s5p2d1f pattern {7211/31111/11/1}
 Group   2 Type O   : 11s7p2d1f contracted to 4s5p2d1f pattern {7211/31111/11/1}
 Group   3 Type H   : 6s3p1d contracted to 3s2p1d pattern {411/21/1}

Atom   0C    basis set group =>   1
Atom   1C    basis set group =>   1
Atom   2C    basis set group =>   1
Atom   3C    basis set group =>   1
Atom   4C    basis set group =>   1
Atom   5C    basis set group =>   1
Atom   6C    basis set group =>   1
Atom   7C    basis set group =>   1
Atom   8C    basis set group =>   1
Atom   9C    basis set group =>   1
Atom  10C    basis set group =>   1
Atom  11C    basis set group =>   1
Atom  12C    basis set group =>   1
Atom  13C    basis set group =>   1
Atom  14C    basis set group =>   1
Atom  15C    basis set group =>   1
Atom  16C    basis set group =>   1
Atom  17C    basis set group =>   1
Atom  18O    basis set group =>   2
Atom  19O    basis set group =>   2
Atom  20O    basis set group =>   2
Atom  21O    basis set group =>   2
Atom  22O    basis set group =>   2
Atom  23C    basis set group =>   1
Atom  24C    basis set group =>   1
Atom  25C    basis set group =>   1
Atom  26C    basis set group =>   1
Atom  27O    basis set group =>   2
Atom  28C    basis set group =>   1
Atom  29C    basis set group =>   1
Atom  30C    basis set group =>   1
Atom  31C    basis set group =>   1
Atom  32C    basis set group =>   1
Atom  33C    basis set group =>   1
Atom  34C    basis set group =>   1
Atom  35C    basis set group =>   1
Atom  36O    basis set group =>   2
Atom  37O    basis set group =>   2
Atom  38O    basis set group =>   2
Atom  39O    basis set group =>   2
Atom  40O    basis set group =>   2
Atom  41C    basis set group =>   1
Atom  42H    basis set group =>   3
Atom  43H    basis set group =>   3
Atom  44H    basis set group =>   3
Atom  45H    basis set group =>   3
Atom  46H    basis set group =>   3
Atom  47H    basis set group =>   3
Atom  48H    basis set group =>   3
Atom  49H    basis set group =>   3
Atom  50H    basis set group =>   3
Atom  51H    basis set group =>   3
Atom  52H    basis set group =>   3
Atom  53H    basis set group =>   3
Atom  54H    basis set group =>   3
Atom  55H    basis set group =>   3
Atom  56H    basis set group =>   3
Atom  57H    basis set group =>   3
Atom  58H    basis set group =>   3
Atom  59H    basis set group =>   3
Atom  60H    basis set group =>   3
Atom  61H    basis set group =>   3
Atom  62H    basis set group =>   3
Atom  63H    basis set group =>   3
Atom  64H    basis set group =>   3
Atom  65H    basis set group =>   3
Atom  66H    basis set group =>   3
Atom  67H    basis set group =>   3
Atom  68H    basis set group =>   3
Atom  69H    basis set group =>   3
Atom  70H    basis set group =>   3
Atom  71H    basis set group =>   3
Atom  72H    basis set group =>   3
Atom  73H    basis set group =>   3
Atom  74H    basis set group =>   3
Atom  75H    basis set group =>   3
Atom  76H    basis set group =>   3
Atom  77H    basis set group =>   3
Atom  78H    basis set group =>   3
Atom  79H    basis set group =>   3
Atom  80H    basis set group =>   3
Atom  81H    basis set group =>   3
---------------------------------
AUXILIARY/J BASIS SET INFORMATION
---------------------------------
There are 3 groups of distinct atoms

 Group   1 Type C   : 15s13p12d5f5g contracted to 15s13p12d5f5g pattern {111111111111111/1111111111111/111111111111/11111/11111}
 Group   2 Type O   : 15s13p12d5f5g contracted to 15s13p12d5f5g pattern {111111111111111/1111111111111/111111111111/11111/11111}
 Group   3 Type H   : 12s4p3d2f contracted to 12s4p3d2f pattern {111111111111/1111/111/11}

Atom   0C    basis set group =>   1
Atom   1C    basis set group =>   1
Atom   2C    basis set group =>   1
Atom   3C    basis set group =>   1
Atom   4C    basis set group =>   1
Atom   5C    basis set group =>   1
Atom   6C    basis set group =>   1
Atom   7C    basis set group =>   1
Atom   8C    basis set group =>   1
Atom   9C    basis set group =>   1
Atom  10C    basis set group =>   1
Atom  11C    basis set group =>   1
Atom  12C    basis set group =>   1
Atom  13C    basis set group =>   1
Atom  14C    basis set group =>   1
Atom  15C    basis set group =>   1
Atom  16C    basis set group =>   1
Atom  17C    basis set group =>   1
Atom  18O    basis set group =>   2
Atom  19O    basis set group =>   2
Atom  20O    basis set group =>   2
Atom  21O    basis set group =>   2
Atom  22O    basis set group =>   2
Atom  23C    basis set group =>   1
Atom  24C    basis set group =>   1
Atom  25C    basis set group =>   1
Atom  26C    basis set group =>   1
Atom  27O    basis set group =>   2
Atom  28C    basis set group =>   1
Atom  29C    basis set group =>   1
Atom  30C    basis set group =>   1
Atom  31C    basis set group =>   1
Atom  32C    basis set group =>   1
Atom  33C    basis set group =>   1
Atom  34C    basis set group =>   1
Atom  35C    basis set group =>   1
Atom  36O    basis set group =>   2
Atom  37O    basis set group =>   2
Atom  38O    basis set group =>   2
Atom  39O    basis set group =>   2
Atom  40O    basis set group =>   2
Atom  41C    basis set group =>   1
Atom  42H    basis set group =>   3
Atom  43H    basis set group =>   3
Atom  44H    basis set group =>   3
Atom  45H    basis set group =>   3
Atom  46H    basis set group =>   3
Atom  47H    basis set group =>   3
Atom  48H    basis set group =>   3
Atom  49H    basis set group =>   3
Atom  50H    basis set group =>   3
Atom  51H    basis set group =>   3
Atom  52H    basis set group =>   3
Atom  53H    basis set group =>   3
Atom  54H    basis set group =>   3
Atom  55H    basis set group =>   3
Atom  56H    basis set group =>   3
Atom  57H    basis set group =>   3
Atom  58H    basis set group =>   3
Atom  59H    basis set group =>   3
Atom  60H    basis set group =>   3
Atom  61H    basis set group =>   3
Atom  62H    basis set group =>   3
Atom  63H    basis set group =>   3
Atom  64H    basis set group =>   3
Atom  65H    basis set group =>   3
Atom  66H    basis set group =>   3
Atom  67H    basis set group =>   3
Atom  68H    basis set group =>   3
Atom  69H    basis set group =>   3
Atom  70H    basis set group =>   3
Atom  71H    basis set group =>   3
Atom  72H    basis set group =>   3
Atom  73H    basis set group =>   3
Atom  74H    basis set group =>   3
Atom  75H    basis set group =>   3
Atom  76H    basis set group =>   3
Atom  77H    basis set group =>   3
Atom  78H    basis set group =>   3
Atom  79H    basis set group =>   3
Atom  80H    basis set group =>   3
Atom  81H    basis set group =>   3
---------------------------------
AUXILIARY/C BASIS SET INFORMATION
---------------------------------
There are 3 groups of distinct atoms

 Group   1 Type C   : 15s13p12d5f5g contracted to 15s13p12d5f5g pattern {111111111111111/1111111111111/111111111111/11111/11111}
 Group   2 Type O   : 15s13p12d5f5g contracted to 15s13p12d5f5g pattern {111111111111111/1111111111111/111111111111/11111/11111}
 Group   3 Type H   : 12s4p3d2f contracted to 12s4p3d2f pattern {111111111111/1111/111/11}

Atom   0C    basis set group =>   1
Atom   1C    basis set group =>   1
Atom   2C    basis set group =>   1
Atom   3C    basis set group =>   1
Atom   4C    basis set group =>   1
Atom   5C    basis set group =>   1
Atom   6C    basis set group =>   1
Atom   7C    basis set group =>   1
Atom   8C    basis set group =>   1
Atom   9C    basis set group =>   1
Atom  10C    basis set group =>   1
Atom  11C    basis set group =>   1
Atom  12C    basis set group =>   1
Atom  13C    basis set group =>   1
Atom  14C    basis set group =>   1
Atom  15C    basis set group =>   1
Atom  16C    basis set group =>   1
Atom  17C    basis set group =>   1
Atom  18O    basis set group =>   2
Atom  19O    basis set group =>   2
Atom  20O    basis set group =>   2
Atom  21O    basis set group =>   2
Atom  22O    basis set group =>   2
Atom  23C    basis set group =>   1
Atom  24C    basis set group =>   1
Atom  25C    basis set group =>   1
Atom  26C    basis set group =>   1
Atom  27O    basis set group =>   2
Atom  28C    basis set group =>   1
Atom  29C    basis set group =>   1
Atom  30C    basis set group =>   1
Atom  31C    basis set group =>   1
Atom  32C    basis set group =>   1
Atom  33C    basis set group =>   1
Atom  34C    basis set group =>   1
Atom  35C    basis set group =>   1
Atom  36O    basis set group =>   2
Atom  37O    basis set group =>   2
Atom  38O    basis set group =>   2
Atom  39O    basis set group =>   2
Atom  40O    basis set group =>   2
Atom  41C    basis set group =>   1
Atom  42H    basis set group =>   3
Atom  43H    basis set group =>   3
Atom  44H    basis set group =>   3
Atom  45H    basis set group =>   3
Atom  46H    basis set group =>   3
Atom  47H    basis set group =>   3
Atom  48H    basis set group =>   3
Atom  49H    basis set group =>   3
Atom  50H    basis set group =>   3
Atom  51H    basis set group =>   3
Atom  52H    basis set group =>   3
Atom  53H    basis set group =>   3
Atom  54H    basis set group =>   3
Atom  55H    basis set group =>   3
Atom  56H    basis set group =>   3
Atom  57H    basis set group =>   3
Atom  58H    basis set group =>   3
Atom  59H    basis set group =>   3
Atom  60H    basis set group =>   3
Atom  61H    basis set group =>   3
Atom  62H    basis set group =>   3
Atom  63H    basis set group =>   3
Atom  64H    basis set group =>   3
Atom  65H    basis set group =>   3
Atom  66H    basis set group =>   3
Atom  67H    basis set group =>   3
Atom  68H    basis set group =>   3
Atom  69H    basis set group =>   3
Atom  70H    basis set group =>   3
Atom  71H    basis set group =>   3
Atom  72H    basis set group =>   3
Atom  73H    basis set group =>   3
Atom  74H    basis set group =>   3
Atom  75H    basis set group =>   3
Atom  76H    basis set group =>   3
Atom  77H    basis set group =>   3
Atom  78H    basis set group =>   3
Atom  79H    basis set group =>   3
Atom  80H    basis set group =>   3
Atom  81H    basis set group =>   3
----------------------------------
AUXILIARY/JK BASIS SET INFORMATION
----------------------------------
There are 3 groups of distinct atoms

 Group   1 Type C   : 15s13p12d5f5g contracted to 15s13p12d5f5g pattern {111111111111111/1111111111111/111111111111/11111/11111}
 Group   2 Type O   : 15s13p12d5f5g contracted to 15s13p12d5f5g pattern {111111111111111/1111111111111/111111111111/11111/11111}
 Group   3 Type H   : 12s4p3d2f contracted to 12s4p3d2f pattern {111111111111/1111/111/11}

Atom   0C    basis set group =>   1
Atom   1C    basis set group =>   1
Atom   2C    basis set group =>   1
Atom   3C    basis set group =>   1
Atom   4C    basis set group =>   1
Atom   5C    basis set group =>   1
Atom   6C    basis set group =>   1
Atom   7C    basis set group =>   1
Atom   8C    basis set group =>   1
Atom   9C    basis set group =>   1
Atom  10C    basis set group =>   1
Atom  11C    basis set group =>   1
Atom  12C    basis set group =>   1
Atom  13C    basis set group =>   1
Atom  14C    basis set group =>   1
Atom  15C    basis set group =>   1
Atom  16C    basis set group =>   1
Atom  17C    basis set group =>   1
Atom  18O    basis set group =>   2
Atom  19O    basis set group =>   2
Atom  20O    basis set group =>   2
Atom  21O    basis set group =>   2
Atom  22O    basis set group =>   2
Atom  23C    basis set group =>   1
Atom  24C    basis set group =>   1
Atom  25C    basis set group =>   1
Atom  26C    basis set group =>   1
Atom  27O    basis set group =>   2
Atom  28C    basis set group =>   1
Atom  29C    basis set group =>   1
Atom  30C    basis set group =>   1
Atom  31C    basis set group =>   1
Atom  32C    basis set group =>   1
Atom  33C    basis set group =>   1
Atom  34C    basis set group =>   1
Atom  35C    basis set group =>   1
Atom  36O    basis set group =>   2
Atom  37O    basis set group =>   2
Atom  38O    basis set group =>   2
Atom  39O    basis set group =>   2
Atom  40O    basis set group =>   2
Atom  41C    basis set group =>   1
Atom  42H    basis set group =>   3
Atom  43H    basis set group =>   3
Atom  44H    basis set group =>   3
Atom  45H    basis set group =>   3
Atom  46H    basis set group =>   3
Atom  47H    basis set group =>   3
Atom  48H    basis set group =>   3
Atom  49H    basis set group =>   3
Atom  50H    basis set group =>   3
Atom  51H    basis set group =>   3
Atom  52H    basis set group =>   3
Atom  53H    basis set group =>   3
Atom  54H    basis set group =>   3
Atom  55H    basis set group =>   3
Atom  56H    basis set group =>   3
Atom  57H    basis set group =>   3
Atom  58H    basis set group =>   3
Atom  59H    basis set group =>   3
Atom  60H    basis set group =>   3
Atom  61H    basis set group =>   3
Atom  62H    basis set group =>   3
Atom  63H    basis set group =>   3
Atom  64H    basis set group =>   3
Atom  65H    basis set group =>   3
Atom  66H    basis set group =>   3
Atom  67H    basis set group =>   3
Atom  68H    basis set group =>   3
Atom  69H    basis set group =>   3
Atom  70H    basis set group =>   3
Atom  71H    basis set group =>   3
Atom  72H    basis set group =>   3
Atom  73H    basis set group =>   3
Atom  74H    basis set group =>   3
Atom  75H    basis set group =>   3
Atom  76H    basis set group =>   3
Atom  77H    basis set group =>   3
Atom  78H    basis set group =>   3
Atom  79H    basis set group =>   3
Atom  80H    basis set group =>   3
Atom  81H    basis set group =>   3
---------------------------------
AUXILIARY/X BASIS SET INFORMATION
---------------------------------
There are 3 groups of distinct atoms

 Group   1 Type C   : 15s13p12d5f5g contracted to 15s13p12d5f5g pattern {111111111111111/1111111111111/111111111111/11111/11111}
 Group   2 Type O   : 15s13p12d5f5g contracted to 15s13p12d5f5g pattern {111111111111111/1111111111111/111111111111/11111/11111}
 Group   3 Type H   : 12s4p3d2f contracted to 12s4p3d2f pattern {111111111111/1111/111/11}

Atom   0C    basis set group =>   1
Atom   1C    basis set group =>   1
Atom   2C    basis set group =>   1
Atom   3C    basis set group =>   1
Atom   4C    basis set group =>   1
Atom   5C    basis set group =>   1
Atom   6C    basis set group =>   1
Atom   7C    basis set group =>   1
Atom   8C    basis set group =>   1
Atom   9C    basis set group =>   1
Atom  10C    basis set group =>   1
Atom  11C    basis set group =>   1
Atom  12C    basis set group =>   1
Atom  13C    basis set group =>   1
Atom  14C    basis set group =>   1
Atom  15C    basis set group =>   1
Atom  16C    basis set group =>   1
Atom  17C    basis set group =>   1
Atom  18O    basis set group =>   2
Atom  19O    basis set group =>   2
Atom  20O    basis set group =>   2
Atom  21O    basis set group =>   2
Atom  22O    basis set group =>   2
Atom  23C    basis set group =>   1
Atom  24C    basis set group =>   1
Atom  25C    basis set group =>   1
Atom  26C    basis set group =>   1
Atom  27O    basis set group =>   2
Atom  28C    basis set group =>   1
Atom  29C    basis set group =>   1
Atom  30C    basis set group =>   1
Atom  31C    basis set group =>   1
Atom  32C    basis set group =>   1
Atom  33C    basis set group =>   1
Atom  34C    basis set group =>   1
Atom  35C    basis set group =>   1
Atom  36O    basis set group =>   2
Atom  37O    basis set group =>   2
Atom  38O    basis set group =>   2
Atom  39O    basis set group =>   2
Atom  40O    basis set group =>   2
Atom  41C    basis set group =>   1
Atom  42H    basis set group =>   3
Atom  43H    basis set group =>   3
Atom  44H    basis set group =>   3
Atom  45H    basis set group =>   3
Atom  46H    basis set group =>   3
Atom  47H    basis set group =>   3
Atom  48H    basis set group =>   3
Atom  49H    basis set group =>   3
Atom  50H    basis set group =>   3
Atom  51H    basis set group =>   3
Atom  52H    basis set group =>   3
Atom  53H    basis set group =>   3
Atom  54H    basis set group =>   3
Atom  55H    basis set group =>   3
Atom  56H    basis set group =>   3
Atom  57H    basis set group =>   3
Atom  58H    basis set group =>   3
Atom  59H    basis set group =>   3
Atom  60H    basis set group =>   3
Atom  61H    basis set group =>   3
Atom  62H    basis set group =>   3
Atom  63H    basis set group =>   3
Atom  64H    basis set group =>   3
Atom  65H    basis set group =>   3
Atom  66H    basis set group =>   3
Atom  67H    basis set group =>   3
Atom  68H    basis set group =>   3
Atom  69H    basis set group =>   3
Atom  70H    basis set group =>   3
Atom  71H    basis set group =>   3
Atom  72H    basis set group =>   3
Atom  73H    basis set group =>   3
Atom  74H    basis set group =>   3
Atom  75H    basis set group =>   3
Atom  76H    basis set group =>   3
Atom  77H    basis set group =>   3
Atom  78H    basis set group =>   3
Atom  79H    basis set group =>   3
Atom  80H    basis set group =>   3
Atom  81H    basis set group =>   3
--------------------------------------------------------------------------
WARNING: There is at least one non-excluded one OpenFabrics device found,
but there are no active ports detected (or Open MPI was unable to use
them).  This is most certainly not what you wanted.  Check your
cables, subnet manager configuration, etc.  The openib BTL will be
ignored for this job.

  Local host: c03b01n07
--------------------------------------------------------------------------
--------------------------------------------------------------------------
WARNING: There was an error initializing an OpenFabrics device.

  Local host:   c03b01n07
  Local device: mlx5_0
--------------------------------------------------------------------------
[c03b01n07:3000114] 7 more processes have sent help message help-mpi-btl-openib.txt / no active ports found
[c03b01n07:3000114] Set MCA parameter "orte_base_help_aggregate" to 0 to see all help / error messages
[c03b01n07:3000114] 51 more processes have sent help message help-mpi-btl-openib.txt / error in device init


           ************************************************************
           *        Program running with 60 parallel MPI-processes    *
           *              working on a common directory               *
           ************************************************************
------------------------------------------------------------------------------
                             ORCA STARTUP CALCULATIONS
                           -- RI-GTO INTEGRALS CHOSEN --
------------------------------------------------------------------------------
------------------------------------------------------------------------------
                   ___                                                        
                  /   \      - P O W E R E D   B Y -                         
                 /     \                                                     
                 |  |  |   _    _      __       _____    __    __             
                 |  |  |  | |  | |    /  \     |  _  \  |  |  /  |          
                  \  \/   | |  | |   /    \    | | | |  |  | /  /          
                 / \  \   | |__| |  /  /\  \   | |_| |  |  |/  /          
                |  |  |   |  __  | /  /__\  \  |    /   |      \           
                |  |  |   | |  | | |   __   |  |    \   |  |\   \          
                \     /   | |  | | |  |  |  |  | |\  \  |  | \   \       
                 \___/    |_|  |_| |__|  |__|  |_| \__\ |__|  \__/        
                                                                              
                      - O R C A' S   B I G   F R I E N D -                    
                                      &                                       
                       - I N T E G R A L  F E E D E R -                       
                                                                              
 v1 FN, 2020, v2 2021, v3 2022-2024                                           
------------------------------------------------------------------------------


----------------------
SHARK INTEGRAL PACKAGE
----------------------

Number of atoms                             ...     82
Number of basis functions                   ...   2072
Number of shells                            ...    744
Maximum angular momentum                    ...      3
Integral batch strategy                     ... SHARK/LIBINT Hybrid
RI-J (if used) integral strategy            ... SPLIT-RIJ (Revised 2003 algorithm where possible)
Printlevel                                  ...      1
Contraction scheme used                     ... SEGMENTED contraction
Prescreening option                         ... SCHWARTZ
   Thresh                                   ... 1.000e-10
   Tcut                                     ... 1.000e-11
   Tpresel                                  ... 1.000e-11 
Coulomb Range Separation                    ... NOT USED
Exchange Range Separation                   ... NOT USED
Multipole approximations                    ... NOT USED
Finite Nucleus Model                        ... NOT USED
CABS basis                                  ... NOT available
Auxiliary Coulomb fitting basis             ... AVAILABLE
   # of basis functions in Aux-J            ...  10268
   # of shells in Aux-J                     ...   2940
   Maximum angular momentum in Aux-J        ...      4
Auxiliary J/K fitting basis                 ... AVAILABLE
   # of basis functions in Aux-JK           ...  10268
   # of shells in Aux-JK                    ...   2940
   Maximum angular momentum in Aux-JK       ...      4
Auxiliary Correlation fitting basis         ... AVAILABLE
   # of basis functions in Aux-C            ...  10268
   # of shells in Aux-C                     ...   2940
   Maximum angular momentum in Aux-C        ...      4
Auxiliary 'external' fitting basis          ... NOT available

Checking pre-screening integrals            ... done (  0.0 sec) Dimension = 744
   => SHARK Basis and OBASIS are compatible. Storing Pre-screening
Shell pair information
Shell pair cut-off parameter TPreSel        ...   1.0e-11
Total number of shell pairs                 ...    277140
Shell pairs after pre-screening             ...    149769
Total number of primitive shell pairs       ...    823733
Primitive shell pairs kept                  ...    274232
          la=0 lb=0:  28532 shell pairs
          la=1 lb=0:  49814 shell pairs
          la=1 lb=1:  20350 shell pairs
          la=2 lb=0:  19639 shell pairs
          la=2 lb=1:  14818 shell pairs
          la=2 lb=2:   2643 shell pairs
          la=3 lb=0:   6775 shell pairs
          la=3 lb=1:   5091 shell pairs
          la=3 lb=2:   1778 shell pairs
          la=3 lb=3:    329 shell pairs

Checking whether 4 symmetric matrices of dimension 2072 fit in memory
:Max Core in MB      =   5000.00
 MB in use           =    185.02
 MB left             =   4814.98
 MB needed           =     65.54
 Data fit in memory  = YES
Calculating RI/J V-Matrix + Cholesky decomp.... done (  6.7 sec)
Calculating RI/JK V-Matrix + Cholesky decomp.... done (  4.3 sec)
Calculating RI/C V-Matrix + Cholesky decomp.... done (  4.0 sec)
Calculating Nuclear repulsion               ... done (  0.0 sec) ENN=   5679.429325208587 Eh

Diagonalization of the overlap matrix:
Smallest eigenvalue                        ... 7.426e-06
Time for diagonalization                   ...    2.787 sec
Threshold for overlap eigenvalues          ... 1.000e-07
Number of eigenvalues below threshold      ... 0
Time for construction of square roots      ...    0.410 sec
Total time needed                          ...    3.250 sec

-------------------
DFT GRID GENERATION
-------------------

General Integration Accuracy     IntAcc      ... 4.388
Radial Grid Type                 RadialGrid  ... OptM3 with GC (2021)
Angular Grid (max. ang.)         AngularGrid ... 4 (Lebedev-302)
Angular grid pruning method      GridPruning ... 4 (adaptive)
Weight generation scheme         WeightScheme... mBecke (2022)
Basis function cutoff            BFCut       ... 1.0000e-10
Integration weight cutoff        WCut        ... 1.0000e-14
Partially contracted basis set               ... off
Rotationally invariant grid construction     ... off
Angular grids for H and He will be reduced by one unit
Diffuse basis detected: some atoms will have their outermost
                        angular grid increased by 1.

Total number of grid points                  ...   376903
Total number of batches                      ...     5931
Average number of points per batch           ...       63
Average number of grid points per atom       ...     4596
Grids setup in   3.6 sec
Initializing property integral containers    ... done (  0.2 sec)

SHARK setup successfully completed in  30.8 seconds

Maximum memory used throughout the entire STARTUP-calculation: 257.0 MB
--------------------------------------------------------------------------
WARNING: There is at least one non-excluded one OpenFabrics device found,
but there are no active ports detected (or Open MPI was unable to use
them).  This is most certainly not what you wanted.  Check your
cables, subnet manager configuration, etc.  The openib BTL will be
ignored for this job.

  Local host: c03b01n07
--------------------------------------------------------------------------
--------------------------------------------------------------------------
WARNING: There was an error initializing an OpenFabrics device.

  Local host:   c03b01n07
  Local device: mlx5_0
--------------------------------------------------------------------------


           ************************************************************
           *        Program running with 60 parallel MPI-processes    *
           *              working on a common directory               *
           ************************************************************
-------------------------------------------------------------------------------
                                 ORCA GUESS
                   Start orbitals & Density for SCF / CASSCF
-------------------------------------------------------------------------------

------------
SCF SETTINGS
------------
Hamiltonian:
 Density Functional     Method          .... DFT(GTOs)
 Exchange Functional    Exchange        .... TPSS
 Correlation Functional Correlation     .... TPSS
 LDA part of GGA corr.  LDAOpt          .... PW91-LDA
 Gradients option       PostSCFGGA      .... off
   NL short-range parameter             ....  5.000000
 RI-approximation to the Coulomb term is turned on
   Number of AuxJ basis functions       .... 10268


General Settings:
 Integral files         IntName         .... nmr-conf-15
 Hartree-Fock type      HFTyp           .... RHF
 Total Charge           Charge          ....    0
 Multiplicity           Mult            ....    1
 Number of Electrons    NEL             ....  314
 Basis Dimension        Dim             .... 2072
 Nuclear Repulsion      ENuc            ....   5679.4293252086 Eh

Convergence Acceleration:
 AO-DIIS                CNVDIIS         .... on
   Start iteration      DIISMaxIt       ....    12
   Startup error        DIISStart       ....  0.200000
   # of expansion vecs  DIISMaxEq       ....     5
   Bias factor          DIISBfac        ....   1.050
   Max. coefficient     DIISMaxC        ....  10.000
 MO-DIIS                CNVKDIIS        .... off
 Trust-Rad. Augm. Hess. CNVTRAH         .... auto
   Auto Start mean grad. ratio tolernc. ....  1.125000
   Auto Start start iteration           ....    50
   Auto Start num. interpolation iter.  ....    10
   Max. Number of Micro iterations      ....    24
   Max. Number of Macro iterations      .... Maxiter - #DIIS iter
   Number of Davidson start vectors     ....     2
   Converg. threshold    (grad. norm)   ....   5.000e-05
   Grad. Scal. Fac. for Micro threshold ....   0.100
   Minimum threshold for Micro iter.    ....   1.000e-02
   NR start threshold (gradient norm)   ....   1.000e-04
   Initial trust radius                 ....   0.400
   Minimum AH scaling param. (alpha)    ....   1.000
   Maximum AH scaling param. (alpha)    .... 1000.000
   Quad. conv. algorithm                .... NR
   White noise on init. David. guess    .... on
   Maximum white noise                  ....   0.010
   Pseudo random numbers                .... off
   Inactive MOs                         .... canonical
   Orbital update algorithm             .... Taylor
   Preconditioner                       .... Diag
   Full preconditioner red. dimension   ....   250
 SOSCF                 CNVSOSCF           .... on
   Start iteration     SOSCFMaxIt         ....   150
   Startup grad/error  SOSCFStart         ....  0.003300
   Hessian update      SOSCFHessUp        .... L-BFGS
   Autom. constraints  SOSCFAutoConstrain .... off
 Level Shifting         CNVShift        .... on
   Level shift para.    LevelShift      ....    0.2500
   Turn off err/grad.   ShiftErr        ....    0.0010
 Zerner damping         CNVZerner       .... off
 Static damping         CNVDamp         .... on
   Fraction old density DampFac         ....    0.7000
   Max. Damping (<1)    DampMax         ....    0.9800
   Min. Damping (>=0)   DampMin         ....    0.0000
   Turn off err/grad.   DampErr         ....    0.1000

SCF Procedure:
 Maximum # iterations   MaxIter         ....   125
 SCF integral mode      SCFMode         .... Direct
   Integral package                     .... SHARK and LIBINT hybrid scheme
 Reset frequency        DirectResetFreq ....    20
 Integral Threshold     Thresh          ....  1.000e-10 Eh
 Primitive CutOff       TCut            ....  1.000e-11 Eh

Convergence Tolerance:
 Convergence Check Mode ConvCheckMode   .... Total+1el-Energy
 Convergence forced     ConvForced      .... 0
 Energy Change          TolE            ....  1.000e-06 Eh
 1-El. energy change                    ....  1.000e-03 Eh
 Orbital Gradient       TolG            ....  5.000e-05
 Orbital Rotation angle TolX            ....  5.000e-05
 DIIS Error             TolErr          ....  1.000e-06

------------------------------
INITIAL GUESS: MODEL POTENTIAL
------------------------------
Loading Hartree-Fock densities                     ... done
Calculating cut-offs                               ... done
Initializing the effective Hamiltonian             ... done
Setting up the integral package (SHARK)            ... done
Starting the Coulomb interaction                   ... done (   2.5 sec)
Making the grid                                    ... [c03b01n07:3000512] 10 more processes have sent help message help-mpi-btl-openib.txt / no active ports found
[c03b01n07:3000512] Set MCA parameter "orte_base_help_aggregate" to 0 to see all help / error messages
[c03b01n07:3000512] 48 more processes have sent help message help-mpi-btl-openib.txt / error in device init
done (   1.0 sec)
Mapping shells                                     ... done
Starting the XC term evaluation                    ... done (   0.2 sec)
  promolecular density results
     # of electrons  =    313.993763686
     EX              =   -260.289056359
     EC              =    -10.632297373
     EX+EC           =   -270.921353732
Transforming the Hamiltonian                       ... done (   0.3 sec)
Diagonalizing the Hamiltonian                      ... done (   0.6 sec)
Back transforming the eigenvectors                 ... done (   0.2 sec)
Now organizing SCF variables                       ... done
                      ------------------
                      INITIAL GUESS DONE (   5.7 sec)
                      ------------------
             **** ENERGY FILE WAS UPDATED (nmr-conf-15.en.tmp) ****
Finished Guess after  11.4 sec
Maximum memory used throughout the entire GUESS-calculation: 289.0 MB
--------------------------------------------------------------------------
WARNING: There was an error initializing an OpenFabrics device.

  Local host:   c03b01n07
  Local device: mlx5_0
--------------------------------------------------------------------------
--------------------------------------------------------------------------
WARNING: There is at least one non-excluded one OpenFabrics device found,
but there are no active ports detected (or Open MPI was unable to use
them).  This is most certainly not what you wanted.  Check your
cables, subnet manager configuration, etc.  The openib BTL will be
ignored for this job.

  Local host: c03b01n07
--------------------------------------------------------------------------


           ************************************************************
           *        Program running with 60 parallel MPI-processes    *
           *              working on a common directory               *
           ************************************************************

-------------------------------------------------------------------------------------------
                                      ORCA LEAN-SCF
                              memory conserving SCF solver
-------------------------------------------------------------------------------------------

--------------------
CPCM SOLVATION MODEL
--------------------
CPCM parameters:
  Epsilon                                         ...      33.4280
  Refrac                                          ...       1.3288
  Rsolv                                           ...       1.3000
  Surface type                                    ... GAUSSIAN VDW
  Discretization scheme                           ... Constant charge density
    Threshold for H atoms                         ...       5.0000 (charges/Ang^2)
    Threshold for non-H atoms                     ...       5.0000 (charges/Ang^2)
  Epsilon function type                           ...         CPCM
Solvent:                                          ... METHANOL
Radii:
  Scheme                                          ... Element-dependent radii
  Radius for C  used is    3.8550 Bohr (=   2.0400 Ang.)
  Radius for O  used is    3.4469 Bohr (=   1.8240 Ang.)
  Radius for H  used is    2.4944 Bohr (=   1.3200 Ang.)
Calculating surface                               ...        done! (  0.0s)
Cavity surface points                             ...         6243
Cavity Volume                                     ...    4575.9887
Cavity Surface-area                               ...    2116.5267
Calculating surface distance matrix               ...        done! (  0.2s)
Performing Cholesky decomposition & store         ...        done! (  0.8s)
Overall time for CPCM initialization              ...                 1.0s

[c03b01n07:3001042] 51 more processes have sent help message help-mpi-btl-openib.txt / error in device init
[c03b01n07:3001042] Set MCA parameter "orte_base_help_aggregate" to 0 to see all help / error messages
[c03b01n07:3001042] 7 more processes have sent help message help-mpi-btl-openib.txt / no active ports found
----------------------------------------D-I-I-S--------------------------------------------
Iteration    Energy (Eh)           Delta-E    RMSDP     MaxDP     DIISErr   Damp  Time(sec)
-------------------------------------------------------------------------------------------
               ***  Starting incremental Fock matrix formation  ***
    1    -2033.0144419668249611     0.00e+00  7.93e-03  2.99e-01  2.36e-01  0.700  10.8
    2    -2033.4253581439606933    -4.11e-01  6.42e-03  2.35e-01  8.17e-02  0.700   9.0
                               ***Turning on AO-DIIS***
    3    -2033.5784302165711779    -1.53e-01  2.77e-03  7.98e-02  2.45e-02  0.700   7.1
    4    -2033.6709724574084248    -9.25e-02  4.71e-03  8.42e-02  1.13e-02  0.000   6.6
    5    -2033.8760999470860042    -2.05e-01  1.20e-03  2.94e-02  4.78e-03  0.000   6.6
                              *** Initializing SOSCF ***
---------------------------------------S-O-S-C-F--------------------------------------
Iteration    Energy (Eh)           Delta-E    RMSDP     MaxDP     MaxGrad    Time(sec)
--------------------------------------------------------------------------------------
    6    -2033.8774843957626217    -1.38e-03  3.81e-04  5.70e-03  1.30e-03     7.7
               *** Restarting incremental Fock matrix formation ***
    7    -2033.8775901542221618    -1.06e-04  3.02e-04  5.56e-03  1.33e-04     6.4
    8    -2033.8775670100567368     2.31e-05  7.54e-05  2.07e-03  6.87e-04     5.5
    9    -2033.8776059818046633    -3.90e-05  6.40e-05  9.60e-04  1.27e-04     5.3
   10    -2033.8776063274035550    -3.46e-07  2.01e-05  4.75e-04  1.11e-04     5.2
                 **** Energy Check signals convergence ****

               *****************************************************
               *                     SUCCESS                       *
               *           SCF CONVERGED AFTER  10 CYCLES          *
               *****************************************************

             **** ENERGY FILE WAS UPDATED (nmr-conf-15.en.tmp) ****

----------------
TOTAL SCF ENERGY
----------------

Total Energy       :      -2033.87760652809357 Eh          -55344.62334 eV

Components:
Nuclear Repulsion  :       5679.42932520858722 Eh          154545.12886 eV
Electronic Energy  :      -7713.25917877595384 Eh         -209888.45278 eV
One Electron Energy:     -14087.32429466672511 Eh         -383335.58246 eV
Two Electron Energy:       6374.06511589077127 Eh          173447.12969 eV
CPCM Dielectric    :         -0.04775296072688 Eh              -1.29942 eV

Virial components:
Potential Energy   :      -4061.11010120901983 Eh         -110508.42399 eV
Kinetic Energy     :       2027.23249468092627 Eh           55163.80065 eV
Virial Ratio       :          2.00327792291442

DFT components:
N(Alpha)           :      157.000396516925 electrons
N(Beta)            :      157.000396516925 electrons
N(Total)           :      314.000793033850 electrons
E(X)               :     -268.087514076135 Eh       
E(C)               :      -10.599125552126 Eh       
E(XC)              :     -278.686639628261 Eh       

CPCM Solvation Model Properties:
Surface-charge          :         -0.04247135151199
Corrected charge        :          0.00000000000000
Outlying charge corr.   :          0.00007739696401 Eh               0.00211 eV
Free-energy (cav+disp)  :  This term is not implemented in the current solvation scheme

---------------
SCF CONVERGENCE
---------------

  Last Energy change         ...    3.4560e-07  Tolerance :   1.0000e-06
  Last MAX-Density change    ...    4.7541e-04  Tolerance :   1.0000e-05
  Last RMS-Density change    ...    2.0137e-05  Tolerance :   1.0000e-06
  Last DIIS Error            ...    1.2983e-03  Tolerance :   1.0000e-06
  Last Orbital Gradient      ...    1.1066e-04  Tolerance :   5.0000e-05
  Last Orbital Rotation      ...    2.2500e-04  Tolerance :   5.0000e-05


----------------
ORBITAL ENERGIES
----------------

  NO   OCC          E(Eh)            E(eV) 
   0   2.0000     -18.920910      -514.8641 
   1   2.0000     -18.918595      -514.8011 
   2   2.0000     -18.918586      -514.8009 
   3   2.0000     -18.911772      -514.6155 
   4   2.0000     -18.909738      -514.5601 
   5   2.0000     -18.909568      -514.5555 
   6   2.0000     -18.899467      -514.2806 
   7   2.0000     -18.884969      -513.8861 
   8   2.0000     -18.883475      -513.8455 
   9   2.0000     -18.878664      -513.7146 
  10   2.0000     -18.868530      -513.4388 
  11   2.0000     -10.047596      -273.4090 
  12   2.0000     -10.046948      -273.3914 
  13   2.0000     -10.044199      -273.3166 
  14   2.0000     -10.042769      -273.2776 
  15   2.0000     -10.041431      -273.2412 
  16   2.0000     -10.041386      -273.2400 
  17   2.0000     -10.041100      -273.2322 
  18   2.0000     -10.038962      -273.1740 
  19   2.0000     -10.036515      -273.1075 
  20   2.0000     -10.033303      -273.0201 
  21   2.0000     -10.032759      -273.0052 
  22   2.0000     -10.032365      -272.9945 
  23   2.0000     -10.032190      -272.9898 
  24   2.0000     -10.031351      -272.9669 
  25   2.0000     -10.025037      -272.7951 
  26   2.0000     -10.020473      -272.6709 
  27   2.0000      -9.990307      -271.8501 
  28   2.0000      -9.989629      -271.8316 
  29   2.0000      -9.987410      -271.7712 
  30   2.0000      -9.987337      -271.7692 
  31   2.0000      -9.986431      -271.7446 
  32   2.0000      -9.983782      -271.6725 
  33   2.0000      -9.983610      -271.6678 
  34   2.0000      -9.983503      -271.6649 
  35   2.0000      -9.983264      -271.6584 
  36   2.0000      -9.982571      -271.6396 
  37   2.0000      -9.982312      -271.6325 
  38   2.0000      -9.981962      -271.6230 
  39   2.0000      -9.978951      -271.5411 
  40   2.0000      -9.975086      -271.4359 
  41   2.0000      -9.974291      -271.4143 
  42   2.0000      -1.015713       -27.6390 
  43   2.0000      -1.011358       -27.5204 
  44   2.0000      -1.006836       -27.3974 
  45   2.0000      -0.996797       -27.1242 
  46   2.0000      -0.989947       -26.9378 
  47   2.0000      -0.983490       -26.7621 
  48   2.0000      -0.979740       -26.6601 
  49   2.0000      -0.957917       -26.0663 
  50   2.0000      -0.951999       -25.9052 
  51   2.0000      -0.949452       -25.8359 
  52   2.0000      -0.941671       -25.6242 
  53   2.0000      -0.798459       -21.7272 
  54   2.0000      -0.797161       -21.6919 
  55   2.0000      -0.793778       -21.5998 
  56   2.0000      -0.759968       -20.6798 
  57   2.0000      -0.732468       -19.9315 
  58   2.0000      -0.718039       -19.5388 
  59   2.0000      -0.704490       -19.1701 
  60   2.0000      -0.700487       -19.0612 
  61   2.0000      -0.697035       -18.9673 
  62   2.0000      -0.696388       -18.9497 
  63   2.0000      -0.686387       -18.6775 
  64   2.0000      -0.667506       -18.1638 
  65   2.0000      -0.652738       -17.7619 
  66   2.0000      -0.649673       -17.6785 
  67   2.0000      -0.648856       -17.6563 
  68   2.0000      -0.638135       -17.3645 
  69   2.0000      -0.624998       -17.0071 
  70   2.0000      -0.620192       -16.8763 
  71   2.0000      -0.613096       -16.6832 
  72   2.0000      -0.576842       -15.6967 
  73   2.0000      -0.567498       -15.4424 
  74   2.0000      -0.562762       -15.3135 
  75   2.0000      -0.558827       -15.2065 
  76   2.0000      -0.546072       -14.8594 
  77   2.0000      -0.544035       -14.8039 
  78   2.0000      -0.537197       -14.6179 
  79   2.0000      -0.529662       -14.4128 
  80   2.0000      -0.513363       -13.9693 
  81   2.0000      -0.509918       -13.8756 
  82   2.0000      -0.502216       -13.6660 
  83   2.0000      -0.495272       -13.4770 
  84   2.0000      -0.489926       -13.3316 
  85   2.0000      -0.479258       -13.0413 
  86   2.0000      -0.472909       -12.8685 
  87   2.0000      -0.467817       -12.7300 
  88   2.0000      -0.466665       -12.6986 
  89   2.0000      -0.458360       -12.4726 
  90   2.0000      -0.455055       -12.3827 
  91   2.0000      -0.450562       -12.2604 
  92   2.0000      -0.446119       -12.1395 
  93   2.0000      -0.441960       -12.0264 
  94   2.0000      -0.439222       -11.9518 
  95   2.0000      -0.435231       -11.8432 
  96   2.0000      -0.429193       -11.6789 
  97   2.0000      -0.427675       -11.6376 
  98   2.0000      -0.425216       -11.5707 
  99   2.0000      -0.420368       -11.4388 
 100   2.0000      -0.418186       -11.3794 
 101   2.0000      -0.409957       -11.1555 
 102   2.0000      -0.409353       -11.1391 
 103   2.0000      -0.402106       -10.9419 
 104   2.0000      -0.401974       -10.9383 
 105   2.0000      -0.397954       -10.8289 
 106   2.0000      -0.396435       -10.7875 
 107   2.0000      -0.390084       -10.6147 
 108   2.0000      -0.387801       -10.5526 
 109   2.0000      -0.384559       -10.4644 
 110   2.0000      -0.383782       -10.4432 
 111   2.0000      -0.379909       -10.3378 
 112   2.0000      -0.377353       -10.2683 
 113   2.0000      -0.375381       -10.2146 
 114   2.0000      -0.373942       -10.1755 
 115   2.0000      -0.370593       -10.0844 
 116   2.0000      -0.369939       -10.0666 
 117   2.0000      -0.367883       -10.0106 
[...]
 
 sDSO           -91.098           17.973           27.595  iso=     -15.177
 sPSO           114.612            8.027            6.199  iso=      42.946
        ---------------  ---------------  ---------------
 Total           23.514           26.000           33.794  iso=      27.769

 Orientation: 
  X           0.5718577   -0.4426153   -0.6907029
  Y          -0.4459348    0.5389791   -0.7145933
  Z           0.6885644    0.7166542    0.1108418

 --------------
 Nucleus  73H :
 --------------

Diamagnetic contribution to the shielding tensor (ppm) : 
          -146.848         -2.350       -48.531
           -99.405         47.861       -16.874
           -54.075         17.505      -106.662

Paramagnetic contribution to the shielding tensor (ppm): 
           170.698          2.208        47.082
            98.164        -14.436        17.100
            53.080        -19.126       131.391

Total shielding tensor (ppm): 
            23.850         -0.143        -1.448
            -1.241         33.424         0.226
            -0.995         -1.621        24.729


 Diagonalized sT*s matrix:
 
 sDSO          -187.390          -71.508           53.248  iso=     -68.550
 sPSO           210.292           97.094          -19.733  iso=      95.884
        ---------------  ---------------  ---------------
 Total           22.902           25.587           33.514  iso=      27.334

 Orientation: 
  X           0.8131976    0.5775177   -0.0719923
  Y           0.0903328   -0.0030490    0.9959070
  Z           0.5749344   -0.8163724   -0.0546483

 --------------
 Nucleus  74H :
 --------------

Diamagnetic contribution to the shielding tensor (ppm) : 
          -135.877         24.383       -55.509
           -95.205         59.413       -29.048
           -16.300        -53.967       -51.908

Paramagnetic contribution to the shielding tensor (ppm): 
           159.818        -24.558        55.755
            96.302        -31.120        26.805
            16.673         52.742        83.155

Total shielding tensor (ppm): 
            23.941         -0.174         0.246
             1.096         28.293        -2.243
             0.372         -1.225        31.247


 Diagonalized sT*s matrix:
 
 sDSO          -117.201           -8.923           -2.248  iso=     -42.791
 sPSO           141.058           36.498           34.296  iso=      70.618
        ---------------  ---------------  ---------------
 Total           23.858           27.575           32.048  iso=      27.827

 Orientation: 
  X           0.9870909    0.1600344    0.0063605
  Y          -0.1433218    0.9003389   -0.4109122
  Z          -0.0714867    0.4046961    0.9116528

 --------------
 Nucleus  75H :
 --------------

Diamagnetic contribution to the shielding tensor (ppm) : 
            58.647       -208.266       -28.306
             9.884       -119.523       -25.251
            48.264        -98.526      -133.144

Paramagnetic contribution to the shielding tensor (ppm): 
           -21.455        215.146        33.627
            -5.379        147.844        30.627
           -44.011        103.047       155.070

Total shielding tensor (ppm): 
            37.192          6.880         5.321
             4.505         28.321         5.376
             4.254          4.522        21.926


 Diagonalized sT*s matrix:
 
 sDSO           -91.801          -12.228          -89.990  iso=     -64.673
 sPSO           110.874           38.514          132.071  iso=      93.820
        ---------------  ---------------  ---------------
 Total           19.072           26.286           42.081  iso=      29.147

 Orientation: 
  X          -0.1049235   -0.5576119   -0.8234440
  Y          -0.4276010    0.7728614   -0.4688738
  Z           0.8978577    0.3029096   -0.3195267

 --------------
 Nucleus  76H :
 --------------

Diamagnetic contribution to the shielding tensor (ppm) : 
          -154.364          8.599       -70.043
          -124.287         56.284       -31.178
            24.383        -21.763       -52.934

Paramagnetic contribution to the shielding tensor (ppm): 
           187.133        -11.205        57.697
           121.212        -34.247        34.455
           -37.979         23.227        84.158

Total shielding tensor (ppm): 
            32.770         -2.606       -12.346
            -3.076         22.037         3.277
           -13.596          1.464        31.224


 Diagonalized sT*s matrix:
 
 sDSO          -131.061           55.084          -75.036  iso=     -50.338
 sPSO           150.048          -33.604          120.601  iso=      79.015
        ---------------  ---------------  ---------------
 Total           18.986           21.479           45.565  iso=      28.677

 Orientation: 
  X          -0.6846369    0.0553717   -0.7267780
  Y          -0.0720974    0.9870758    0.1431202
  Z          -0.7253098   -0.1503842    0.6717963

 --------------
 Nucleus  77H :
 --------------

Diamagnetic contribution to the shielding tensor (ppm) : 
            20.504        178.331        23.708
           -12.989        124.098         2.534
            37.172         17.220       128.769

Paramagnetic contribution to the shielding tensor (ppm): 
            13.912       -177.315       -16.631
            12.555       -102.167        -6.216
           -30.385        -22.110       -95.568

Total shielding tensor (ppm): 
            34.416          1.016         7.076
            -0.434         21.931        -3.682
             6.787         -4.890        33.201


 Diagonalized sT*s matrix:
 
 sDSO            88.686           98.803           85.882  iso=      91.124
 sPSO           -68.730          -70.367          -44.726  iso=     -61.274
        ---------------  ---------------  ---------------
 Total           19.955           28.436           41.156  iso=      29.849

 Orientation: 
  X          -0.2230506   -0.6716127    0.7065301
  Y           0.8848933   -0.4435385   -0.1422588
  Z           0.4089161    0.5934728    0.6932371

 --------------
 Nucleus  78H :
 --------------

Diamagnetic contribution to the shielding tensor (ppm) : 
          -114.883        -19.164       -22.077
           -98.577         37.054        -6.884
           -46.899         25.711       -40.786

Paramagnetic contribution to the shielding tensor (ppm): 
           137.487         23.390        24.645
           104.649        -16.232         9.995
            49.083        -25.594        76.076

Total shielding tensor (ppm): 
            22.604          4.226         2.568
             6.072         20.822         3.110
             2.185          0.117        35.290


 Diagonalized sT*s matrix:
 
 sDSO            35.690          -93.778          -60.527  iso=     -39.538
 sPSO           -19.195          119.835           96.690  iso=      65.777
        ---------------  ---------------  ---------------
 Total           16.495           26.057           36.163  iso=      26.238

 Orientation: 
  X           0.6338516    0.7357760    0.2384657
  Y          -0.7725960    0.6168288    0.1503919
  Z          -0.0364377   -0.2795638    0.9594355

 --------------
 Nucleus  79H :
 --------------

Diamagnetic contribution to the shielding tensor (ppm) : 
             6.803       -178.402       -16.676
           -27.617        -86.235         0.584
          -103.138        108.443      -127.602

Paramagnetic contribution to the shielding tensor (ppm): 
            25.137        178.747        12.324
            28.194        111.240         1.613
            98.649       -107.991       155.307

Total shielding tensor (ppm): 
            31.940          0.345        -4.351
             0.577         25.006         2.197
            -4.489          0.451        27.705


 Diagonalized sT*s matrix:
 
 sDSO          -109.320         -126.221           28.508  iso=     -69.011
 sPSO           132.914          152.545            6.226  iso=      97.228
        ---------------  ---------------  ---------------
 Total           23.593           26.324           34.734  iso=      28.217

 Orientation: 
  X          -0.3626275    0.3963868   -0.8434327
  Y           0.7084098    0.7052890    0.0268882
  Z          -0.6055220    0.5877456    0.5365615

 --------------
 Nucleus  80H :
 --------------

Diamagnetic contribution to the shielding tensor (ppm) : 
           -32.289        -49.593       -29.565
           -35.738          0.171        -5.846
          -114.150        100.361       -64.951

Paramagnetic contribution to the shielding tensor (ppm): 
            59.330         52.446        27.829
            38.436         23.533         7.080
           115.725        -97.695        95.051

Total shielding tensor (ppm): 
            27.041          2.853        -1.735
             2.698         23.703         1.234
             1.575          2.667        30.101


 Diagonalized sT*s matrix:
 
 sDSO            -5.303          -25.847          -65.918  iso=     -32.356
 sPSO            27.070           54.119           96.725  iso=      59.305
        ---------------  ---------------  ---------------
 Total           21.767           28.271           30.807  iso=      26.948

 Orientation: 
  X          -0.4658734    0.8466907    0.2570542
  Y           0.8614246    0.3675751    0.3504800
  Z          -0.2022615   -0.3847121    0.9006036

 --------------
 Nucleus  81H :
 --------------

Diamagnetic contribution to the shielding tensor (ppm) : 
            92.906        -84.821       -26.568
            38.348         -4.808       -17.171
          -131.289        112.376        10.805

Paramagnetic contribution to the shielding tensor (ppm): 
           -66.966         86.283        25.831
           -37.902         34.680        16.048
           131.330       -115.234        16.921

Total shielding tensor (ppm): 
            25.940          1.462        -0.737
             0.446         29.872        -1.123
             0.041         -2.858        27.726


 Diagonalized sT*s matrix:
 
 sDSO           114.671           15.663          -31.430  iso=      32.968
 sPSO           -88.959           10.917           62.676  iso=      -5.122
        ---------------  ---------------  ---------------
 Total           25.711           26.580           31.246  iso=      27.846

 Orientation: 
  X           0.9627840    0.2074328   -0.1732586
  Y          -0.2512867    0.4510057   -0.8564163
  Z          -0.0995082    0.8680815    0.4863462



--------------------------------
CHEMICAL SHIELDING SUMMARY (ppm)
--------------------------------


  Nucleus  Element    Isotropic     Anisotropy
  -------  -------  ------------   ------------
      0       C           24.594        123.957 
      1       C           45.802         94.093 
      2       C           24.118        121.328 
      3       C           77.595        131.616 
      4       C           39.566        194.056 
      5       C           76.399        126.492 
      6       C          146.820         34.666 
      7       C          133.546         17.811 
      8       C          136.660         24.487 
      9       C          144.245         39.149 
     10       C           44.134        181.624 
     11       C           71.159        154.473 
     12       C           29.860        118.301 
     13       C           32.203        123.447 
     14       C           67.073        143.300 
     15       C           56.231        148.427 
     16       C          116.179         72.420 
     17       C          113.175         68.125 
     23       C           94.614         44.132 
     24       C          101.574         42.250 
     25       C           44.775        181.445 
     26       C          111.883         56.080 
     28       C           72.237        160.929 
     29       C           31.357        119.266 
     30       C           32.900        121.296 
     31       C           67.511        146.733 
     32       C           56.888        154.257 
     33       C          124.208         77.303 
     34       C          123.427         75.017 
     35       C          123.970         80.050 
     41       C          124.422         76.347 
     42       H           25.874          8.951 
     43       H           25.784          9.919 
     44       H           29.027          4.725 
     45       H           30.152          6.470 
     46       H           30.786          4.356 
     47       H           28.978          3.226 
     48       H           29.146          4.561 
     49       H           28.458          7.999 
     50       H           24.635         10.201 
     51       H           24.702          3.231 
     52       H           24.592          5.639 
     53       H           28.350          5.438 
     54       H           28.085          7.433 
     55       H           27.925          6.443 
     56       H           28.036          6.079 
     57       H           25.308         12.968 
     58       H           26.460          6.063 
     59       H           26.624          4.680 
     60       H           27.353          7.031 
     61       H           27.396          5.302 
     62       H           29.342         16.753 
     63       H           24.844         10.667 
     64       H           25.192          5.126 
     65       H           25.134          4.352 
     66       H           27.929          6.890 
     67       H           27.528          9.330 
     68       H           28.039          9.722 
     69       H           28.110          9.257 
     70       H           28.030          8.223 
     71       H           27.468          7.648 
     72       H           27.769          9.037 
     73       H           27.334          9.270 
     74       H           27.827          6.332 
     75       H           29.147         19.402 
     76       H           28.677         25.333 
     77       H           29.849         16.961 
     78       H           26.238         14.887 
     79       H           28.217          9.775 
     80       H           26.948          5.788 
     81       H           27.846          5.100 


NMR shielding tensor and spin rotation calculation done in   3.8 sec 

Maximum memory used throughout the entire PROP-calculation: 365.9 MB
--------------------------------------------------------------------------
WARNING: There was an error initializing an OpenFabrics device.

  Local host:   c03b01n07
  Local device: mlx5_0
--------------------------------------------------------------------------
--------------------------------------------------------------------------
WARNING: There is at least one non-excluded one OpenFabrics device found,
but there are no active ports detected (or Open MPI was unable to use
them).  This is most certainly not what you wanted.  Check your
cables, subnet manager configuration, etc.  The openib BTL will be
ignored for this job.

  Local host: c03b01n07
--------------------------------------------------------------------------
[c03b01n07:3002960] 50 more processes have sent help message help-mpi-btl-openib.txt / error in device init
[c03b01n07:3002960] Set MCA parameter "orte_base_help_aggregate" to 0 to see all help / error messages
[c03b01n07:3002960] 8 more processes have sent help message help-mpi-btl-openib.txt / no active ports found

--------------------------------
SUGGESTED CITATIONS FOR THIS RUN
--------------------------------

Below you find a list of papers that are relevant to this ORCA run
We neither can nor want to force you to cite these papers, but we appreciate if you do
You receive ORCA, which is the product of decades of hard work by many enthusiastic individuals, for free
The only thing we kindly ask in return is that you cite our papers,
We deeply appreciate it, if you show your appreciation for ORCA by not just citing the generic ORCA reference.

Please note that relegating all ORCA citations to the supporting information does *not* help us.
SI sections are not indexed - citations you put there will not count into any citation statistics
But we need these citations in order to attract the funding resources that allow us to do what we are doing

Therefore, if you are a happy ORCA user, please consider citing a few of the papers listed below in the main body of your paper

In addition to the list printed below, the program has created the file nmr-conf-15.bibtex that contains the list in bibtex format
You can import this file easily into all common literature databanks and citation aid programs


List of essential papers. We consider these as the minimum necessary citations

  1. Neese, F.
     Software update: the ORCA program system, version 6.0
     WIRES Comput. Molec. Sci. 2025 15(1), e70019
     doi.org/10.1002/wcms.7019

List of papers to cite with high priority. The work reported in these papers was absolutely
necessary for this run to complete.
Our perspective: the developers of density functionals and basis sets usually get cited in chemistry papers
Good! But without the algorithms to do something with them, the functionals or basis sets would not do anything.
Hence, in our opinion, the algorithm design and method developments papers are equally worthy of getting cited

  1. Neese, F.
     An improvement of the resolution of the identity approximation for the formation of the Coulomb matrix
     J. Comp. Chem. 2003 24(14), 1740-1747
     doi.org/10.1002/jcc.10318
  2. Stoychev, G.L.; Auer, A.A.; Neese, F.
     Automatic Generation of Auxiliary Basis Sets
     J. Theo. Comp. Chem. 2017 13 , 554-562
     doi.org/10.1021/acs.jctc.6b01041
  3. Stoychev, G.L.; Auer, A.A.; Izsak, R.; Neese, F.
     Self-Consistent Field Calculation of Nuclear Magnetic Resonance Chemical Shielding Constants Using Gauge-Including Atomic Orbitals and Approximate Two-Electron Integrals
     J. Chem. Theory Comput. 2018 14(2), 619-637
     doi.org/10.1021/acs.jctc.7b01006
  4. Garcia-Rates, M.; Neese, F.
     Effect of the Solute Cavity on the Solvation Energy and its Derivatives within the Framework of the Gaussian Charge Scheme
     J. Comput. Chem. 2020 41 , 922-939
     doi.org/10.1002/jcc.26139
  5. Neese, F.
     The SHARK Integral Generation and Digestion System
     J. Comp. Chem. 2022 44(3), 381
     doi.org/10.1002/jcc.26942

List of suggested additional citations. These are papers that are important in the 'surrounding' of 
of this run, or papers that preceded the highly important papers. If you like your results we are grateful for a citation.

  1. Neese, F.
     The ORCA program system
     WIRES Comput. Molec. Sci. 2012 2(1), 73-78
     doi.org/10.1002/wcms.81
  2. Neese, F.
     Software update: the ORCA program system, version 4.0
     WIRES Comput. Molec. Sci. 2018 8(1), 1-6
     doi.org/10.1002/wcms.1327
  3. Neese, F.; Wennmohs, F.; Becker, U.; Riplinger, C.
     The ORCA quantum chemistry program package
     J. Chem. Phys. 2020 152(22), 224108
     doi.org/10.1063/5.0004608
  4. Neese, F.
     Software update: The ORCA program system—Version 5.0
     WIRES Comput. Molec. Sci. 2022 12(1), e1606
     doi.org/10.1002/wcms.1606

List of optional additional citations

  1. Neese, F.
     Approximate second-order SCF convergence for spin unrestricted wavefunctions
     Chem. Phys. Lett. 2000 325(1-3), 93-98
     doi.org/10.1016/s0009-2614(00)00662-x

Timings for individual modules:

Sum of individual times          ...      249.178 sec (=   4.153 min)
Startup calculation              ...       79.746 sec (=   1.329 min)  32.0 %
SCF iterations                   ...       99.783 sec (=   1.663 min)  40.0 %
Property integrals               ...       50.771 sec (=   0.846 min)  20.4 %
SCF Response                     ...       10.426 sec (=   0.174 min)   4.2 %
Property calculations            ...        8.453 sec (=   0.141 min)   3.4 %
                             ****ORCA TERMINATED NORMALLY****
TOTAL RUN TIME: 0 days 0 hours 4 minutes 36 seconds 918 msec
